From PySCF
GAUSSIAN              5 MOL ORBITALS     42 PRIMITIVES        3 NUCLEI
  O    1    (CENTRE  1)   0.00000000  0.00000000  0.22226052  CHARGE = 8.0
  H    2    (CENTRE  2)   1.43843496  0.00000000 -0.88904206  CHARGE = 1.0
  H    3    (CENTRE  3)  -1.43843496  0.00000000 -0.88904206  CHARGE = 1.0
CENTRE ASSIGNMENTS    1  1  1  1  1  1  1  1  1  1  1  1  1  1  1  1  1  1  1  1
CENTRE ASSIGNMENTS    1  1  1  1  1  1  1  1  1  1  2  2  2  2  2  2  3  3  3  3
CENTRE ASSIGNMENTS    3  3
TYPE ASSIGNMENTS      1  1  1  1  1  1  1  1  1  1  1  1  2  2  2  2  2  2  3  3
TYPE ASSIGNMENTS      3  3  3  3  4  4  4  4  4  4  1  1  1  1  1  1  1  1  1  1
TYPE ASSIGNMENTS      1  1
EXPONENTS  1.3555842E+03 2.4854489E+02 6.9533902E+01 2.3886772E+01 9.2759326E+00
EXPONENTS  3.8203413E+00 5.2187762E+01 1.0329320E+01 3.2103450E+00 1.2351354E+00
EXPONENTS  5.3642016E-01 2.4588061E-01 5.2187762E+01 1.0329320E+01 3.2103450E+00
EXPONENTS  1.2351354E+00 5.3642016E-01 2.4588061E-01 5.2187762E+01 1.0329320E+01
EXPONENTS  3.2103450E+00 1.2351354E+00 5.3642016E-01 2.4588061E-01 5.2187762E+01
EXPONENTS  1.0329320E+01 3.2103450E+00 1.2351354E+00 5.3642016E-01 2.4588061E-01
EXPONENTS  3.5523221E+01 6.5131437E+00 1.8221429E+00 6.2595527E-01 2.4307675E-01
EXPONENTS  1.0011243E-01 3.5523221E+01 6.5131437E+00 1.8221429E+00 6.2595527E-01
EXPONENTS  2.4307675E-01 1.0011243E-01
MO  1                     OCC NO =   2.00000000 ORB. ENERGY = -18.76780855
  1.45315705E+00  2.19327775E+00  2.88069844E+00  2.84204953E+00  1.57136142E+00
  2.52805402E-01 -3.55751949E-03 -3.74316163E-03 -1.12022692E-03  4.05330510E-03
  5.15697336E-03  1.16196747E-03  0.00000000E+00  0.00000000E+00  0.00000000E+00
  0.00000000E+00  0.00000000E+00  0.00000000E+00  0.00000000E+00  0.00000000E+00
  0.00000000E+00  0.00000000E+00  0.00000000E+00  0.00000000E+00 -2.84043481E-03
 -3.75806670E-03 -4.02487376E-03 -2.93176087E-03 -1.05297712E-03 -9.48490324E-05
 -4.85371241E-04 -7.32580105E-04 -9.62186556E-04 -9.49277374E-04 -5.24852866E-04
 -8.44399247E-05 -4.85371241E-04 -7.32580105E-04 -9.62186556E-04 -9.49277374E-04
 -5.24852866E-04 -8.44399247E-05
MO  2                     OCC NO =   2.00000000 ORB. ENERGY =  -0.85344522
 -3.13661675E-01 -4.73415570E-01 -6.21794250E-01 -6.13451943E-01 -3.39175903E-01
 -5.45676505E-02 -1.45843414E-01 -1.53453966E-01 -4.59246168E-02  1.66168550E-01
  2.11414331E-01  4.76358046E-02  0.00000000E+00  0.00000000E+00  0.00000000E+00
  0.00000000E+00  0.00000000E+00  0.00000000E+00  0.00000000E+00  0.00000000E+00
  0.00000000E+00  0.00000000E+00  0.00000000E+00  0.00000000E+00 -1.54805380E-01
 -2.04816863E-01 -2.19358006E-01 -1.59782705E-01 -5.73878773E-02 -5.16932848E-03
  1.63142580E-02  2.46234219E-02  3.23409350E-02  3.19070326E-02  1.76413111E-02
  2.83818777E-03  1.63142580E-02  2.46234219E-02  3.23409350E-02  3.19070326E-02
  1.76413111E-02  2.83818777E-03
MO  3                     OCC NO =   2.00000000 ORB. ENERGY =  -0.39660852
  0.00000000E+00  0.00000000E+00  0.00000000E+00  0.00000000E+00  0.00000000E+00
  0.00000000E+00  0.00000000E+00  0.00000000E+00  0.00000000E+00  0.00000000E+00
  0.00000000E+00  0.00000000E+00  4.58789673E-01  6.07006430E-01  6.50101355E-01
  4.73540744E-01  1.70077845E-01  1.53201040E-02  0.00000000E+00  0.00000000E+00
  0.00000000E+00  0.00000000E+00  0.00000000E+00  0.00000000E+00  0.00000000E+00
  0.00000000E+00  0.00000000E+00  0.00000000E+00  0.00000000E+00  0.00000000E+00
  4.20036807E-02  6.33969594E-02  8.32669378E-02  8.21497863E-02  4.54203924E-02
  7.30737081E-03 -4.20036807E-02 -6.33969594E-02 -8.32669378E-02 -8.21497863E-02
 -4.54203924E-02 -7.30737081E-03
MO  4                     OCC NO =   2.00000000 ORB. ENERGY =  -0.17564430
 -1.73674311E-01 -2.62129963E-01 -3.44287163E-01 -3.39668032E-01 -1.87801527E-01
 -3.02140806E-02 -1.14497208E-01 -1.20472019E-01 -3.60540133E-02  1.30453851E-01
  1.65974931E-01  3.73974145E-02  0.00000000E+00  0.00000000E+00  0.00000000E+00
  0.00000000E+00  0.00000000E+00  0.00000000E+00  0.00000000E+00  0.00000000E+00
  0.00000000E+00  0.00000000E+00  0.00000000E+00  0.00000000E+00  5.61289389E-01
  7.42619742E-01  7.95342646E-01  5.79336045E-01  2.08075498E-01  1.87428190E-02
 -2.67153545E-02 -4.03219959E-02 -5.29597816E-02 -5.22492464E-02 -2.88884655E-02
 -4.64766416E-03 -2.67153545E-02 -4.03219959E-02 -5.29597816E-02 -5.22492464E-02
 -2.88884655E-02 -4.64766416E-03
MO  5                     OCC NO =   2.00000000 ORB. ENERGY =  -0.07958203
  0.00000000E+00  0.00000000E+00  0.00000000E+00  0.00000000E+00  0.00000000E+00
  0.00000000E+00  0.00000000E+00  0.00000000E+00  0.00000000E+00  0.00000000E+00
  0.00000000E+00  0.00000000E+00  0.00000000E+00  0.00000000E+00  0.00000000E+00
  0.00000000E+00  0.00000000E+00  0.00000000E+00  7.51715887E-01  9.94565492E-01
  1.06517549E+00  7.75885162E-01  2.78668473E-01  2.51016233E-02  0.00000000E+00
  0.00000000E+00  0.00000000E+00  0.00000000E+00  0.00000000E+00  0.00000000E+00
  0.00000000E+00  0.00000000E+00  0.00000000E+00  0.00000000E+00  0.00000000E+00
  0.00000000E+00  0.00000000E+00  0.00000000E+00  0.00000000E+00  0.00000000E+00
  0.00000000E+00  0.00000000E+00
END DATA
RHF      ENERGY =        0.0000000000   VIRIAL(-V/T)  =   0.00000000
