From PySCF
GAUSSIAN              5 MOL ORBITALS     39 PRIMITIVES        3 NUCLEI
  O    1    (CENTRE  1)   0.00000000  0.00000000  0.22226052  CHARGE = 8.0
  H    2    (CENTRE  2)   1.43843496  0.00000000 -0.88904206  CHARGE = 1.0
  H    3    (CENTRE  3)  -1.43843496  0.00000000 -0.88904206  CHARGE = 1.0
CENTRE ASSIGNMENTS    1  1  1  1  1  1  1  1  1  1  1  1  1  1  1  1  1  1  1  1
CENTRE ASSIGNMENTS    1  1  1  1  1  2  2  2  2  2  2  2  3  3  3  3  3  3  3
TYPE ASSIGNMENTS      1  1  1  1  1  1  1  2  2  2  3  3  3  4  4  4  2  3  4  5
TYPE ASSIGNMENTS      8  9  6 10  7  1  1  1  1  2  3  4  1  1  1  1  2  3  4
EXPONENTS  2.2661768E+03 3.4087010E+02 7.7363135E+01 2.1479645E+01 6.6589433E+00
EXPONENTS  8.0975976E-01 2.5530772E-01 1.7721504E+01 3.8635505E+00 1.0480921E+00
EXPONENTS  1.7721504E+01 3.8635505E+00 1.0480921E+00 1.7721504E+01 3.8635505E+00
EXPONENTS  1.0480921E+00 2.7641544E-01 2.7641544E-01 2.7641544E-01 1.2000000E+00
EXPONENTS  1.2000000E+00 1.2000000E+00 1.2000000E+00 1.2000000E+00 1.2000000E+00
EXPONENTS  1.3010701E+01 1.9622572E+00 4.4453796E-01 1.2194962E-01 8.0000000E-01
EXPONENTS  8.0000000E-01 8.0000000E-01 1.3010701E+01 1.9622572E+00 4.4453796E-01
EXPONENTS  1.2194962E-01 8.0000000E-01 8.0000000E-01 8.0000000E-01
MO  1                     OCC NO =   2.00000000 ORB. ENERGY = -18.79523859
 -1.24745189E+00 -2.24936394E+00 -3.31045370E+00 -3.29269068E+00 -1.30559002E+00
 -2.41810183E-02  3.61802677E-03  0.00000000E+00  0.00000000E+00  0.00000000E+00
  0.00000000E+00  0.00000000E+00  0.00000000E+00  1.00164395E-02  7.94121398E-03
  3.45864499E-03  0.00000000E+00  0.00000000E+00  3.94877600E-06 -2.62037602E-03
  0.00000000E+00  0.00000000E+00  2.94385816E-03  0.00000000E+00 -3.23482132E-04
  4.24537657E-04  7.20202479E-04  8.19912622E-04 -3.49569174E-04 -2.84927659E-03
  0.00000000E+00  2.24264123E-03  4.24537657E-04  7.20202479E-04  8.19912622E-04
 -3.49569174E-04  2.84927659E-03  0.00000000E+00  2.24264123E-03
MO  2                     OCC NO =   2.00000000 ORB. ENERGY =  -0.89228365
 -3.47384065E-01 -6.26391441E-01 -9.21878325E-01 -9.16931771E-01 -3.63574076E-01
  3.36017622E-01  6.28319048E-02  0.00000000E+00  0.00000000E+00  0.00000000E+00
  0.00000000E+00  0.00000000E+00  0.00000000E+00 -4.24845982E-01 -3.36825562E-01
 -1.46697979E-01  0.00000000E+00  0.00000000E+00 -1.83888665E-04  8.23153237E-03
  0.00000000E+00  0.00000000E+00 -1.50281324E-02  0.00000000E+00  6.79660008E-03
  3.43527447E-02  5.82773553E-02  6.63457022E-02  2.33347499E-03 -3.42723210E-02
  0.00000000E+00  1.54423619E-02  3.43527447E-02  5.82773553E-02  6.63457022E-02
  2.33347499E-03  3.42723210E-02  0.00000000E+00  1.54423619E-02
MO  3                     OCC NO =   2.00000000 ORB. ENERGY =  -0.46320220
  0.00000000E+00  0.00000000E+00  0.00000000E+00  0.00000000E+00  0.00000000E+00
  0.00000000E+00  0.00000000E+00  1.64495269E+00  1.30414818E+00  5.67996980E-01
  0.00000000E+00  0.00000000E+00  0.00000000E+00  0.00000000E+00  0.00000000E+00
  0.00000000E+00  5.53902112E-02  0.00000000E+00  0.00000000E+00  0.00000000E+00
  0.00000000E+00 -8.77652487E-02  0.00000000E+00  0.00000000E+00  0.00000000E+00
  5.44081450E-02  9.23001300E-02  1.05078841E-01  1.58838549E-02 -1.34825988E-02
  0.00000000E+00  2.67843344E-02 -5.44081450E-02 -9.23001300E-02 -1.05078841E-01
 -1.58838549E-02 -1.34825988E-02  0.00000000E+00 -2.67843344E-02
MO  4                     OCC NO =   2.00000000 ORB. ENERGY =  -0.30787850
 -1.44773956E-01 -2.61051603E-01 -3.84197163E-01 -3.82135663E-01 -1.51521220E-01
  1.37452118E-01  9.60779022E-02  0.00000000E+00  0.00000000E+00  0.00000000E+00
  0.00000000E+00  0.00000000E+00  0.00000000E+00  1.77315020E+00  1.40578548E+00
  6.12263176E-01  0.00000000E+00  0.00000000E+00  9.73624211E-02  2.03972719E-02
  0.00000000E+00  0.00000000E+00  2.16014682E-02  0.00000000E+00 -4.19987401E-02
 -3.26108069E-02 -5.53222631E-02 -6.29814852E-02 -9.98695816E-03  2.46894054E-02
  0.00000000E+00  1.68989978E-02 -3.26108069E-02 -5.53222631E-02 -6.29814852E-02
 -9.98695816E-03 -2.46894054E-02  0.00000000E+00  1.68989978E-02
MO  5                     OCC NO =   2.00000000 ORB. ENERGY =  -0.23178818
  0.00000000E+00  0.00000000E+00  0.00000000E+00  0.00000000E+00  0.00000000E+00
  0.00000000E+00  0.00000000E+00  0.00000000E+00  0.00000000E+00  0.00000000E+00
  2.07114807E+00  1.64204357E+00  7.15160903E-01  0.00000000E+00  0.00000000E+00
  0.00000000E+00  0.00000000E+00  1.39944186E-01  0.00000000E+00  0.00000000E+00
  0.00000000E+00  0.00000000E+00  0.00000000E+00 -7.74586986E-02  0.00000000E+00
  0.00000000E+00  0.00000000E+00  0.00000000E+00  0.00000000E+00  0.00000000E+00
  3.33493096E-02  0.00000000E+00  0.00000000E+00  0.00000000E+00  0.00000000E+00
  0.00000000E+00  0.00000000E+00  3.33493096E-02  0.00000000E+00
END DATA
RHF      ENERGY =        0.0000000000   VIRIAL(-V/T)  =   0.00000000
