From PySCF
GAUSSIAN              5 MOL ORBITALS    273 PRIMITIVES        3 NUCLEI
  O    1    (CENTRE  1)   0.00000000  0.00000000  0.22226052  CHARGE = 8.0
  H    2    (CENTRE  2)   1.43843496  0.00000000 -0.88904206  CHARGE = 1.0
  H    3    (CENTRE  3)  -1.43843496  0.00000000 -0.88904206  CHARGE = 1.0
CENTRE ASSIGNMENTS    1  1  1  1  1  1  1  1  1  1  1  1  1  1  1  1  1  1  1  1
CENTRE ASSIGNMENTS    1  1  1  1  1  1  1  1  1  1  1  1  1  1  1  1  1  1  1  1
CENTRE ASSIGNMENTS    1  1  1  1  1  1  1  1  1  1  1  1  1  1  1  1  1  1  1  1
CENTRE ASSIGNMENTS    1  1  1  1  1  1  1  1  1  1  1  1  1  1  1  1  1  1  1  1
CENTRE ASSIGNMENTS    1  1  1  1  1  1  1  1  1  1  1  1  1  1  1  1  1  1  1  1
CENTRE ASSIGNMENTS    1  1  1  1  1  1  1  1  1  1  1  1  1  1  1  1  1  1  1  1
CENTRE ASSIGNMENTS    1  1  1  1  1  1  1  1  1  1  1  1  1  1  1  1  1  1  1  1
CENTRE ASSIGNMENTS    1  1  1  1  1  1  1  1  1  1  1  1  1  1  1  2  2  2  2  2
CENTRE ASSIGNMENTS    2  2  2  2  2  2  2  2  2  2  2  2  2  2  2  2  2  2  2  2
CENTRE ASSIGNMENTS    2  2  2  2  2  2  2  2  2  2  2  2  2  2  2  2  2  2  2  2
CENTRE ASSIGNMENTS    2  2  2  2  2  2  2  2  2  2  2  2  2  2  3  3  3  3  3  3
CENTRE ASSIGNMENTS    3  3  3  3  3  3  3  3  3  3  3  3  3  3  3  3  3  3  3  3
CENTRE ASSIGNMENTS    3  3  3  3  3  3  3  3  3  3  3  3  3  3  3  3  3  3  3  3
CENTRE ASSIGNMENTS    3  3  3  3  3  3  3  3  3  3  3  3  3
TYPE ASSIGNMENTS      1  1  1  1  1  1  1  1  1  1  1  1  1  2  2  2  2  3  3  3
TYPE ASSIGNMENTS      3  4  4  4  4  2  3  4  2  3  4  2  3  4  2  3  4  2  3  4
TYPE ASSIGNMENTS      5  5  8  8  9  9  6  6 10 10  7  7  5  8  9  6 10  7  5  8
TYPE ASSIGNMENTS      9  6 10  7  5  8  9  6 10  7 11 11 14 14 15 15 17 17 20 20
TYPE ASSIGNMENTS     18 18 12 12 16 16 19 19 13 13 11 14 15 17 20 18 12 16 19 13
TYPE ASSIGNMENTS     11 14 15 17 20 18 12 16 19 13 21 21 24 24 25 25 30 30 33 33
TYPE ASSIGNMENTS     31 31 26 26 34 34 35 35 28 28 22 22 27 27 32 32 29 29 23 23
TYPE ASSIGNMENTS     21 24 25 30 33 31 26 34 35 28 22 27 32 29 23  1  1  1  1  1
TYPE ASSIGNMENTS      1  1  1  1  2  3  4  2  3  4  2  3  4  2  3  4  5  8  9  6
TYPE ASSIGNMENTS     10  7  5  8  9  6 10  7  5  8  9  6 10  7 11 14 15 17 20 18
TYPE ASSIGNMENTS     12 16 19 13 11 14 15 17 20 18 12 16 19 13  1  1  1  1  1  1
TYPE ASSIGNMENTS      1  1  1  2  3  4  2  3  4  2  3  4  2  3  4  5  8  9  6 10
TYPE ASSIGNMENTS      7  5  8  9  6 10  7  5  8  9  6 10  7 11 14 15 17 20 18 12
TYPE ASSIGNMENTS     16 19 13 11 14 15 17 20 18 12 16 19 13
EXPONENTS  1.1371829E+04 1.7060929E+03 3.8826799E+02 1.0975075E+02 3.5465902E+01
EXPONENTS  1.2534049E+01 9.8428230E+00 1.0495500E+00 4.5888600E+00 1.9723430E+00
EXPONENTS  4.3265900E-01 1.9162800E-01 6.3876000E-02 1.1164360E+02 2.6229036E+01
EXPONENTS  8.1625280E+00 2.9239230E+00 1.1164360E+02 2.6229036E+01 8.1625280E+00
EXPONENTS  2.9239230E+00 1.1164360E+02 2.6229036E+01 8.1625280E+00 2.9239230E+00
EXPONENTS  2.5608557E+01 2.5608557E+01 2.5608557E+01 1.1057210E+00 1.1057210E+00
EXPONENTS  1.1057210E+00 4.1363600E-01 4.1363600E-01 4.1363600E-01 1.4797700E-01
EXPONENTS  1.4797700E-01 1.4797700E-01 4.9325700E-02 4.9325700E-02 4.9325700E-02
EXPONENTS  1.0520368E+01 2.9714730E+00 1.0520368E+01 2.9714730E+00 1.0520368E+01
EXPONENTS  2.9714730E+00 1.0520368E+01 2.9714730E+00 1.0520368E+01 2.9714730E+00
EXPONENTS  1.0520368E+01 2.9714730E+00 1.1683940E+00 1.1683940E+00 1.1683940E+00
EXPONENTS  1.1683940E+00 1.1683940E+00 1.1683940E+00 4.2681900E-01 4.2681900E-01
EXPONENTS  4.2681900E-01 4.2681900E-01 4.2681900E-01 4.2681900E-01 1.4227300E-01
EXPONENTS  1.4227300E-01 1.4227300E-01 1.4227300E-01 1.4227300E-01 1.4227300E-01
EXPONENTS  4.8912290E+00 1.9686530E+00 4.8912290E+00 1.9686530E+00 4.8912290E+00
EXPONENTS  1.9686530E+00 4.8912290E+00 1.9686530E+00 4.8912290E+00 1.9686530E+00
EXPONENTS  4.8912290E+00 1.9686530E+00 4.8912290E+00 1.9686530E+00 4.8912290E+00
EXPONENTS  1.9686530E+00 4.8912290E+00 1.9686530E+00 4.8912290E+00 1.9686530E+00
EXPONENTS  7.4764400E-01 7.4764400E-01 7.4764400E-01 7.4764400E-01 7.4764400E-01
EXPONENTS  7.4764400E-01 7.4764400E-01 7.4764400E-01 7.4764400E-01 7.4764400E-01
EXPONENTS  2.4921470E-01 2.4921470E-01 2.4921470E-01 2.4921470E-01 2.4921470E-01
EXPONENTS  2.4921470E-01 2.4921470E-01 2.4921470E-01 2.4921470E-01 2.4921470E-01
EXPONENTS  2.6377970E+00 9.7211900E-01 2.6377970E+00 9.7211900E-01 2.6377970E+00
EXPONENTS  9.7211900E-01 2.6377970E+00 9.7211900E-01 2.6377970E+00 9.7211900E-01
EXPONENTS  2.6377970E+00 9.7211900E-01 2.6377970E+00 9.7211900E-01 2.6377970E+00
EXPONENTS  9.7211900E-01 2.6377970E+00 9.7211900E-01 2.6377970E+00 9.7211900E-01
EXPONENTS  2.6377970E+00 9.7211900E-01 2.6377970E+00 9.7211900E-01 2.6377970E+00
EXPONENTS  9.7211900E-01 2.6377970E+00 9.7211900E-01 2.6377970E+00 9.7211900E-01
EXPONENTS  3.3189570E-01 3.3189570E-01 3.3189570E-01 3.3189570E-01 3.3189570E-01
EXPONENTS  3.3189570E-01 3.3189570E-01 3.3189570E-01 3.3189570E-01 3.3189570E-01
EXPONENTS  3.3189570E-01 3.3189570E-01 3.3189570E-01 3.3189570E-01 3.3189570E-01
EXPONENTS  4.1855801E+02 6.2745349E+01 1.4279584E+01 4.0418170E+00 1.3163895E+00
EXPONENTS  4.7346190E-01 1.8279990E-01 7.2884400E-02 2.4294800E-02 2.8606730E+00
EXPONENTS  2.8606730E+00 2.8606730E+00 8.8819000E-01 8.8819000E-01 8.8819000E-01
EXPONENTS  3.0377600E-01 3.0377600E-01 3.0377600E-01 1.0125870E-01 1.0125870E-01
EXPONENTS  1.0125870E-01 1.7706130E+00 1.7706130E+00 1.7706130E+00 1.7706130E+00
EXPONENTS  1.7706130E+00 1.7706130E+00 5.9308100E-01 5.9308100E-01 5.9308100E-01
EXPONENTS  5.9308100E-01 5.9308100E-01 5.9308100E-01 1.9769370E-01 1.9769370E-01
EXPONENTS  1.9769370E-01 1.9769370E-01 1.9769370E-01 1.9769370E-01 1.4514450E+00
EXPONENTS  1.4514450E+00 1.4514450E+00 1.4514450E+00 1.4514450E+00 1.4514450E+00
EXPONENTS  1.4514450E+00 1.4514450E+00 1.4514450E+00 1.4514450E+00 4.8381500E-01
EXPONENTS  4.8381500E-01 4.8381500E-01 4.8381500E-01 4.8381500E-01 4.8381500E-01
EXPONENTS  4.8381500E-01 4.8381500E-01 4.8381500E-01 4.8381500E-01 4.1855801E+02
EXPONENTS  6.2745349E+01 1.4279584E+01 4.0418170E+00 1.3163895E+00 4.7346190E-01
EXPONENTS  1.8279990E-01 7.2884400E-02 2.4294800E-02 2.8606730E+00 2.8606730E+00
EXPONENTS  2.8606730E+00 8.8819000E-01 8.8819000E-01 8.8819000E-01 3.0377600E-01
EXPONENTS  3.0377600E-01 3.0377600E-01 1.0125870E-01 1.0125870E-01 1.0125870E-01
EXPONENTS  1.7706130E+00 1.7706130E+00 1.7706130E+00 1.7706130E+00 1.7706130E+00
EXPONENTS  1.7706130E+00 5.9308100E-01 5.9308100E-01 5.9308100E-01 5.9308100E-01
EXPONENTS  5.9308100E-01 5.9308100E-01 1.9769370E-01 1.9769370E-01 1.9769370E-01
EXPONENTS  1.9769370E-01 1.9769370E-01 1.9769370E-01 1.4514450E+00 1.4514450E+00
EXPONENTS  1.4514450E+00 1.4514450E+00 1.4514450E+00 1.4514450E+00 1.4514450E+00
EXPONENTS  1.4514450E+00 1.4514450E+00 1.4514450E+00 4.8381500E-01 4.8381500E-01
EXPONENTS  4.8381500E-01 4.8381500E-01 4.8381500E-01 4.8381500E-01 4.8381500E-01
EXPONENTS  4.8381500E-01 4.8381500E-01 4.8381500E-01
MO  1                     OCC NO =   2.00000000 ORB. ENERGY = -18.81120128
  5.77898382E-01  1.07537971E+00  1.80423925E+00  2.65285219E+00  3.08468305E+00
  2.14786201E+00 -2.02224773E-02  1.97353678E-02  5.94570584E-01 -2.31512930E-02
 -4.35079624E-03  4.60006507E-03  8.34037290E-04  0.00000000E+00  0.00000000E+00
  0.00000000E+00  0.00000000E+00  0.00000000E+00  0.00000000E+00  0.00000000E+00
  0.00000000E+00 -5.42990451E-03 -6.64936495E-03 -6.68700131E-03 -5.20860138E-03
  0.00000000E+00  0.00000000E+00 -1.56583716E-02  0.00000000E+00  0.00000000E+00
  1.67567586E-03  0.00000000E+00  0.00000000E+00 -2.15148305E-03  0.00000000E+00
  0.00000000E+00 -9.20492097E-04  0.00000000E+00  0.00000000E+00 -3.66212620E-05
  5.16378252E-05  6.47957065E-05  0.00000000E+00  0.00000000E+00  0.00000000E+00
  0.00000000E+00 -5.04951940E-04 -6.33619205E-04  0.00000000E+00  0.00000000E+00
  4.53314115E-04  5.68823498E-04  4.03825008E-04  0.00000000E+00  0.00000000E+00
 -4.85620231E-05  0.00000000E+00 -3.55262984E-04  5.29006977E-04  0.00000000E+00
  0.00000000E+00 -7.62219475E-04  0.00000000E+00  2.33212499E-04  5.73301938E-05
  0.00000000E+00  0.00000000E+00 -8.96798456E-05  0.00000000E+00  3.23496518E-05
  0.00000000E+00  0.00000000E+00  0.00000000E+00  0.00000000E+00  1.35692993E-03
  9.12652886E-04  0.00000000E+00  0.00000000E+00  0.00000000E+00  0.00000000E+00
  0.00000000E+00  0.00000000E+00  0.00000000E+00  0.00000000E+00 -9.08877622E-04
 -6.11298910E-04  0.00000000E+00  0.00000000E+00 -1.49350768E-04 -1.00451326E-04
  0.00000000E+00  0.00000000E+00 -1.67921955E-03  0.00000000E+00  0.00000000E+00
  0.00000000E+00  0.00000000E+00  7.70644764E-04  0.00000000E+00  3.02858261E-04
  0.00000000E+00  0.00000000E+00 -2.15421711E-04  0.00000000E+00  0.00000000E+00
  0.00000000E+00  0.00000000E+00  1.07702853E-04  0.00000000E+00  3.59062860E-05
 -2.61324040E-04 -2.53125323E-05  0.00000000E+00  0.00000000E+00  0.00000000E+00
  0.00000000E+00 -2.59672778E-03 -2.51525867E-04  0.00000000E+00  0.00000000E+00
  4.16467202E-03  4.03401061E-04  0.00000000E+00  0.00000000E+00  0.00000000E+00
  0.00000000E+00  0.00000000E+00  0.00000000E+00  0.00000000E+00  0.00000000E+00
  5.48145217E-04  5.30947841E-05  0.00000000E+00  0.00000000E+00 -6.92143524E-04
 -6.70428380E-05  0.00000000E+00  0.00000000E+00 -5.78754749E-04 -5.60597038E-05
 -1.48043349E-05  0.00000000E+00  0.00000000E+00 -2.64198299E-05  0.00000000E+00
  1.15245839E-04  0.00000000E+00  0.00000000E+00  0.00000000E+00  0.00000000E+00
  8.51609854E-06  0.00000000E+00 -2.46767613E-05  0.00000000E+00 -1.50948463E-05
 -1.79246872E-05 -3.34729467E-05 -5.72945727E-05 -9.00946020E-05 -1.25247014E-04
 -2.04606448E-03 -1.43034118E-03 -4.57171611E-04 -6.88246423E-06  7.02447422E-04
  0.00000000E+00 -5.54586547E-04  8.50889122E-04  0.00000000E+00 -6.98204268E-04
  3.63343520E-04  0.00000000E+00 -4.22295984E-05  8.38790806E-05  0.00000000E+00
 -3.90095564E-05  9.11155515E-05  0.00000000E+00  1.98637541E-04  1.09805782E-04
  0.00000000E+00 -2.00921334E-04 -6.83600484E-05  0.00000000E+00  1.81606536E-04
  1.38877530E-05  0.00000000E+00  5.44722954E-05 -5.54187432E-06  0.00000000E+00
 -9.89993271E-06 -9.17770214E-06  0.00000000E+00  1.47195765E-05 -1.63452686E-04
  0.00000000E+00  2.18360025E-03  1.27469575E-03  0.00000000E+00 -7.84337697E-04
  0.00000000E+00 -9.47302612E-04  0.00000000E+00 -4.12099212E-04  3.08761052E-09
  0.00000000E+00 -1.32062564E-04 -8.16209212E-05  0.00000000E+00  8.16116584E-05
  0.00000000E+00  4.80938859E-05  0.00000000E+00  2.79895594E-05 -1.79246872E-05
 -3.34729467E-05 -5.72945727E-05 -9.00946020E-05 -1.25247014E-04 -2.04606448E-03
 -1.43034118E-03 -4.57171611E-04 -6.88246423E-06 -7.02447422E-04  0.00000000E+00
 -5.54586547E-04 -8.50889122E-04  0.00000000E+00 -6.98204268E-04 -3.63343520E-04
  0.00000000E+00 -4.22295984E-05 -8.38790806E-05  0.00000000E+00 -3.90095564E-05
  9.11155515E-05  0.00000000E+00 -1.98637541E-04  1.09805782E-04  0.00000000E+00
 -2.00921334E-04 -6.83600484E-05  0.00000000E+00 -1.81606536E-04  1.38877530E-05
  0.00000000E+00  5.44722954E-05 -5.54187432E-06  0.00000000E+00  9.89993271E-06
 -9.17770214E-06  0.00000000E+00  1.47195765E-05  1.63452686E-04  0.00000000E+00
  2.18360025E-03 -1.27469575E-03  0.00000000E+00  7.84337697E-04  0.00000000E+00
 -9.47302612E-04  0.00000000E+00 -4.12099212E-04 -3.08761052E-09  0.00000000E+00
 -1.32062564E-04  8.16209212E-05  0.00000000E+00 -8.16116584E-05  0.00000000E+00
  4.80938859E-05  0.00000000E+00  2.79895594E-05
MO  2                     OCC NO =   2.00000000 ORB. ENERGY =  -0.93273771
 -1.31960706E-01 -2.45558510E-01 -4.11990571E-01 -6.05767828E-01 -7.04374619E-01
 -5.38081767E-01 -2.10788852E-01  2.05711470E-01 -2.00265551E-01  8.95650019E-02
  1.87145680E-01  5.79719002E-02  4.06351640E-03  0.00000000E+00  0.00000000E+00
  0.00000000E+00  0.00000000E+00  0.00000000E+00  0.00000000E+00  0.00000000E+00
  0.00000000E+00 -2.22603351E-01 -2.72596124E-01 -2.74139057E-01 -2.13530850E-01
  0.00000000E+00  0.00000000E+00 -2.82620147E-02  0.00000000E+00  0.00000000E+00
 -1.01147951E-01  0.00000000E+00  0.00000000E+00 -5.28227492E-02  0.00000000E+00
  0.00000000E+00 -3.14030592E-03  0.00000000E+00  0.00000000E+00 -6.69009201E-05
  5.87585504E-03  7.37308703E-03  0.00000000E+00  0.00000000E+00  0.00000000E+00
  0.00000000E+00 -9.68787387E-03 -1.21564499E-02  0.00000000E+00  0.00000000E+00
  3.81201883E-03  4.78336282E-03  1.22409043E-02  0.00000000E+00  0.00000000E+00
 -1.89378239E-02  0.00000000E+00  6.69691967E-03  8.71693721E-03  0.00000000E+00
  0.00000000E+00 -9.76937753E-03  0.00000000E+00  1.05244032E-03  1.87288104E-04
  0.00000000E+00  0.00000000E+00 -8.87060037E-05  0.00000000E+00 -9.85821008E-05
  0.00000000E+00  0.00000000E+00  0.00000000E+00  0.00000000E+00 -1.72763406E-02
 -1.16198352E-02  0.00000000E+00  0.00000000E+00  0.00000000E+00  0.00000000E+00
  0.00000000E+00  0.00000000E+00  0.00000000E+00  0.00000000E+00  9.39631246E-03
  6.31983385E-03  0.00000000E+00  0.00000000E+00  2.62667605E-03  1.76666711E-03
  0.00000000E+00  0.00000000E+00 -1.60126532E-02  0.00000000E+00  0.00000000E+00
  0.00000000E+00  0.00000000E+00  9.23190797E-03  0.00000000E+00  2.26024842E-03
  0.00000000E+00  0.00000000E+00  3.82683834E-04  0.00000000E+00  0.00000000E+00
  0.00000000E+00  0.00000000E+00  3.55361463E-05  0.00000000E+00 -1.39406660E-04
 -2.24115505E-03 -2.17084159E-04  0.00000000E+00  0.00000000E+00  0.00000000E+00
  0.00000000E+00 -1.90317323E-02 -1.84346353E-03  0.00000000E+00  0.00000000E+00
  3.24786626E-02  3.14596849E-03  0.00000000E+00  0.00000000E+00  0.00000000E+00
  0.00000000E+00  0.00000000E+00  0.00000000E+00  0.00000000E+00  0.00000000E+00
  4.98717969E-03  4.83071312E-04  0.00000000E+00  0.00000000E+00 -1.08913458E-02
 -1.05496434E-03  0.00000000E+00  0.00000000E+00 -3.59788613E-03 -3.48500692E-04
  1.50189169E-04  0.00000000E+00  0.00000000E+00 -1.82409056E-04  0.00000000E+00
 -7.18725959E-04  0.00000000E+00  0.00000000E+00  0.00000000E+00  0.00000000E+00
  2.48691273E-05  0.00000000E+00  3.31942928E-05  0.00000000E+00  1.14255278E-04
  7.49189113E-03  1.39905187E-02  2.39471236E-02  3.76563864E-02  5.23488628E-02
  1.01040129E-02 -6.88200237E-03 -2.00041742E-03 -5.80170536E-05 -2.38246403E-02
  0.00000000E+00  1.53803976E-02 -4.06310416E-03  0.00000000E+00  6.54572555E-04
  7.21484986E-03  0.00000000E+00 -8.14221275E-03  7.08476332E-04  0.00000000E+00
 -7.43047122E-04  6.11766054E-03  0.00000000E+00 -1.28172705E-02 -6.09263268E-03
  0.00000000E+00 -2.50278675E-05  1.69498899E-04  0.00000000E+00 -1.01242344E-03
  8.96039446E-04  0.00000000E+00 -1.06553835E-03 -1.71454463E-04  0.00000000E+00
  7.33836103E-04  4.25079705E-04  0.00000000E+00 -2.53625242E-04 -6.12786451E-04
  0.00000000E+00  9.98520286E-03  5.39741606E-03  0.00000000E+00 -3.55905671E-03
  0.00000000E+00 -4.96840765E-03  0.00000000E+00 -1.67226507E-03  8.38343717E-05
  0.00000000E+00  1.50512833E-03  7.34812526E-04  0.00000000E+00 -9.86315641E-04
  0.00000000E+00 -2.65747779E-04  0.00000000E+00 -4.13126850E-04  7.49189113E-03
  1.39905187E-02  2.39471236E-02  3.76563864E-02  5.23488628E-02  1.01040129E-02
 -6.88200237E-03 -2.00041742E-03 -5.80170536E-05  2.38246403E-02  0.00000000E+00
  1.53803976E-02  4.06310416E-03  0.00000000E+00  6.54572555E-04 -7.21484986E-03
  0.00000000E+00 -8.14221275E-03 -7.08476332E-04  0.00000000E+00 -7.43047122E-04
  6.11766054E-03  0.00000000E+00  1.28172705E-02 -6.09263268E-03  0.00000000E+00
 -2.50278675E-05  1.69498899E-04  0.00000000E+00  1.01242344E-03  8.96039446E-04
  0.00000000E+00 -1.06553835E-03 -1.71454463E-04  0.00000000E+00 -7.33836103E-04
  4.25079705E-04  0.00000000E+00 -2.53625242E-04  6.12786451E-04  0.00000000E+00
  9.98520286E-03 -5.39741606E-03  0.00000000E+00  3.55905671E-03  0.00000000E+00
 -4.96840765E-03  0.00000000E+00 -1.67226507E-03 -8.38343717E-05  0.00000000E+00
  1.50512833E-03 -7.34812526E-04  0.00000000E+00  9.86315641E-04  0.00000000E+00
 -2.65747779E-04  0.00000000E+00 -4.13126850E-04
MO  3                     OCC NO =   2.00000000 ORB. ENERGY =  -0.48907857
  0.00000000E+00  0.00000000E+00  0.00000000E+00  0.00000000E+00  0.00000000E+00
  0.00000000E+00  0.00000000E+00  0.00000000E+00  0.00000000E+00  0.00000000E+00
  0.00000000E+00  0.00000000E+00  0.00000000E+00  9.55995387E-01  1.17069503E+00
  1.17732133E+00  9.17032497E-01  0.00000000E+00  0.00000000E+00  0.00000000E+00
  0.00000000E+00  0.00000000E+00  0.00000000E+00  0.00000000E+00  0.00000000E+00
  1.14077950E-01  0.00000000E+00  0.00000000E+00  4.46024799E-01  0.00000000E+00
  0.00000000E+00  1.10159360E-01  0.00000000E+00  0.00000000E+00  9.20075666E-03
  0.00000000E+00  0.00000000E+00  1.91111751E-04  0.00000000E+00  0.00000000E+00
  0.00000000E+00  0.00000000E+00  0.00000000E+00  0.00000000E+00 -8.03899053E-02
 -1.00874131E-01  0.00000000E+00  0.00000000E+00  0.00000000E+00  0.00000000E+00
  0.00000000E+00  0.00000000E+00  0.00000000E+00  0.00000000E+00 -5.49401954E-02
  0.00000000E+00  0.00000000E+00  0.00000000E+00  0.00000000E+00  0.00000000E+00
 -3.71421967E-03  0.00000000E+00  0.00000000E+00  0.00000000E+00  0.00000000E+00
  0.00000000E+00  1.59314155E-04  0.00000000E+00  0.00000000E+00  0.00000000E+00
  8.28105453E-03  5.56972631E-03  0.00000000E+00  0.00000000E+00  0.00000000E+00
  0.00000000E+00 -3.61778330E-02 -2.43327257E-02  0.00000000E+00  0.00000000E+00
  1.13346694E-02  7.62354674E-03  0.00000000E+00  0.00000000E+00  0.00000000E+00
  0.00000000E+00  0.00000000E+00  0.00000000E+00  0.00000000E+00  0.00000000E+00
  1.81141197E-03  0.00000000E+00  0.00000000E+00 -3.45902572E-03  0.00000000E+00
 -1.97521018E-03  0.00000000E+00  0.00000000E+00  0.00000000E+00  0.00000000E+00
 -2.12213533E-04  0.00000000E+00  0.00000000E+00  3.56096173E-04  0.00000000E+00
  2.80544427E-04  0.00000000E+00  0.00000000E+00  0.00000000E+00  0.00000000E+00
  0.00000000E+00  0.00000000E+00  0.00000000E+00  0.00000000E+00 -1.73190286E-02
 -1.67756656E-03  0.00000000E+00  0.00000000E+00  0.00000000E+00  0.00000000E+00
  0.00000000E+00  0.00000000E+00  0.00000000E+00  0.00000000E+00  1.46941174E-02
  1.42331077E-03  0.00000000E+00  0.00000000E+00  1.24209895E-02  1.20312964E-03
  0.00000000E+00  0.00000000E+00  0.00000000E+00  0.00000000E+00  0.00000000E+00
  0.00000000E+00  0.00000000E+00  0.00000000E+00  0.00000000E+00  0.00000000E+00
  0.00000000E+00  0.00000000E+00  2.99144327E-04  0.00000000E+00  0.00000000E+00
  0.00000000E+00  0.00000000E+00 -1.97274539E-04  0.00000000E+00 -2.33386147E-04
  0.00000000E+00  0.00000000E+00  0.00000000E+00  0.00000000E+00  0.00000000E+00
  1.14707999E-02  2.14208186E-02  3.66653304E-02  5.76555195E-02  8.01511024E-02
  6.55588902E-02  2.26199531E-02  9.18174397E-04 -1.02563331E-05 -1.39898375E-02
  0.00000000E+00  1.96784158E-02 -1.27416481E-02  0.00000000E+00  1.76365587E-02
  1.80009213E-03  0.00000000E+00  3.56067366E-03  4.89366523E-04  0.00000000E+00
 -1.61088794E-04  2.59762467E-03  0.00000000E+00 -2.20285214E-02 -7.05873887E-03
  0.00000000E+00  4.46111420E-03 -4.34007053E-05  0.00000000E+00 -3.17255930E-03
 -6.78210606E-04  0.00000000E+00  7.21611311E-04 -2.45190441E-04  0.00000000E+00
  3.62695471E-04  1.43122220E-04  0.00000000E+00  1.02068221E-04  8.43152067E-04
  0.00000000E+00  6.11333891E-03  3.54531609E-03  0.00000000E+00 -6.07477229E-03
  0.00000000E+00 -4.13422436E-03  0.00000000E+00 -6.59704847E-04 -1.08569520E-05
  0.00000000E+00  1.28054535E-04 -1.11329099E-04  0.00000000E+00  1.43899955E-04
  0.00000000E+00  2.14565851E-04  0.00000000E+00 -1.14206795E-04 -1.14707999E-02
 -2.14208186E-02 -3.66653304E-02 -5.76555195E-02 -8.01511024E-02 -6.55588902E-02
 -2.26199531E-02 -9.18174397E-04  1.02563331E-05 -1.39898375E-02  0.00000000E+00
 -1.96784158E-02 -1.27416481E-02  0.00000000E+00 -1.76365587E-02  1.80009213E-03
  0.00000000E+00 -3.56067366E-03  4.89366523E-04  0.00000000E+00  1.61088794E-04
 -2.59762467E-03  0.00000000E+00 -2.20285214E-02  7.05873887E-03  0.00000000E+00
 -4.46111420E-03  4.34007053E-05  0.00000000E+00 -3.17255930E-03  6.78210606E-04
  0.00000000E+00 -7.21611311E-04  2.45190441E-04  0.00000000E+00  3.62695471E-04
 -1.43122220E-04  0.00000000E+00 -1.02068221E-04  8.43152067E-04  0.00000000E+00
 -6.11333891E-03  3.54531609E-03  0.00000000E+00 -6.07477229E-03  0.00000000E+00
  4.13422436E-03  0.00000000E+00  6.59704847E-04 -1.08569520E-05  0.00000000E+00
 -1.28054535E-04 -1.11329099E-04  0.00000000E+00  1.43899955E-04  0.00000000E+00
 -2.14565851E-04  0.00000000E+00  1.14206795E-04
MO  4                     OCC NO =   2.00000000 ORB. ENERGY =  -0.34718357
 -5.11154761E-02 -9.51180129E-02 -1.59586098E-01 -2.34646448E-01 -2.72842160E-01
 -2.15722186E-01 -7.69030206E-02  7.50506170E-02 -8.48459619E-02  4.53108792E-02
  9.79406967E-02  4.51977458E-02  1.87109536E-03  0.00000000E+00  0.00000000E+00
  0.00000000E+00  0.00000000E+00  0.00000000E+00  0.00000000E+00  0.00000000E+00
  0.00000000E+00  1.02462309E+00  1.25473530E+00  1.26183728E+00  9.82863182E-01
  0.00000000E+00  0.00000000E+00  1.10116047E-01  0.00000000E+00  0.00000000E+00
  4.77962494E-01  0.00000000E+00  0.00000000E+00  1.17720781E-01  0.00000000E+00
  0.00000000E+00  1.88359187E-02  0.00000000E+00  0.00000000E+00  6.32046021E-04
  1.81077621E-03  2.27218175E-03  0.00000000E+00  0.00000000E+00  0.00000000E+00
  0.00000000E+00  2.17294501E-02  2.72663512E-02  0.00000000E+00  0.00000000E+00
 -2.35402264E-02 -2.95385329E-02  9.00827287E-03  0.00000000E+00  0.00000000E+00
  1.05154067E-02  0.00000000E+00 -1.95236795E-02  5.68785278E-03  0.00000000E+00
  0.00000000E+00 -2.29266526E-03  0.00000000E+00 -3.39518752E-03  1.11320794E-04
  0.00000000E+00  0.00000000E+00  2.31395730E-04  0.00000000E+00 -3.42716525E-04
  0.00000000E+00  0.00000000E+00  0.00000000E+00  0.00000000E+00  2.63169915E-02
  1.77004558E-02  0.00000000E+00  0.00000000E+00  0.00000000E+00  0.00000000E+00
  0.00000000E+00  0.00000000E+00  0.00000000E+00  0.00000000E+00 -2.72089385E-02
 -1.83003674E-02  0.00000000E+00  0.00000000E+00  2.97315655E-04  1.99970526E-04
  0.00000000E+00  0.00000000E+00 -5.48205001E-03  0.00000000E+00  0.00000000E+00
  0.00000000E+00  0.00000000E+00  6.59066581E-04  0.00000000E+00  1.60766114E-03
  0.00000000E+00  0.00000000E+00 -5.25212242E-05  0.00000000E+00  0.00000000E+00
  0.00000000E+00  0.00000000E+00  3.27984842E-05  0.00000000E+00  6.57424665E-06
  2.00396406E-03  1.94109218E-04  0.00000000E+00  0.00000000E+00  0.00000000E+00
  0.00000000E+00 -7.36718508E-03 -7.13604879E-04  0.00000000E+00  0.00000000E+00
 -4.65659929E-03 -4.51050426E-04  0.00000000E+00  0.00000000E+00  0.00000000E+00
  0.00000000E+00  0.00000000E+00  0.00000000E+00  0.00000000E+00  0.00000000E+00
  4.02697095E-04  3.90062974E-05  0.00000000E+00  0.00000000E+00  4.95100251E-03
  4.79567095E-04  0.00000000E+00  0.00000000E+00 -4.90672034E-05 -4.75277808E-06
  3.95835347E-05  0.00000000E+00  0.00000000E+00 -1.71292854E-04  0.00000000E+00
 -6.62083539E-05  0.00000000E+00  0.00000000E+00  0.00000000E+00  0.00000000E+00
  2.82374709E-05  0.00000000E+00  1.86802840E-06  0.00000000E+00  1.07233876E-05
 -6.55008908E-03 -1.22317773E-02 -2.09367422E-02 -3.29226201E-02 -4.57681124E-02
 -5.06396123E-02 -1.89437764E-02 -6.02026157E-04 -6.52707544E-05  1.39097146E-02
  0.00000000E+00  5.12920891E-03  1.98455795E-02  0.00000000E+00  7.90352413E-04
  6.74013742E-03  0.00000000E+00  2.27365484E-03 -6.56979333E-05  0.00000000E+00
  9.93884363E-04 -1.03617543E-02  0.00000000E+00  7.78809317E-03  4.18727788E-03
  0.00000000E+00  6.17447645E-03 -2.54452838E-03  0.00000000E+00 -2.07917718E-04
  1.26709499E-03  0.00000000E+00  1.27743339E-03 -2.49437848E-04  0.00000000E+00
 -1.24278847E-04  1.35040562E-04  0.00000000E+00  1.14397285E-04  2.02256902E-03
  0.00000000E+00 -3.09956308E-03 -2.86311519E-03  0.00000000E+00 -3.20459188E-03
  0.00000000E+00 -3.72871071E-04  0.00000000E+00  1.15747805E-03  1.69864581E-04
  0.00000000E+00  7.94908101E-04  2.50968677E-04  0.00000000E+00 -7.60562420E-04
  0.00000000E+00 -1.78272252E-04  0.00000000E+00 -2.05545283E-04 -6.55008908E-03
 -1.22317773E-02 -2.09367422E-02 -3.29226201E-02 -4.57681124E-02 -5.06396123E-02
 -1.89437764E-02 -6.02026157E-04 -6.52707544E-05 -1.39097146E-02  0.00000000E+00
  5.12920891E-03 -1.98455795E-02  0.00000000E+00  7.90352413E-04 -6.74013742E-03
  0.00000000E+00  2.27365484E-03  6.56979333E-05  0.00000000E+00  9.93884363E-04
 -1.03617543E-02  0.00000000E+00 -7.78809317E-03  4.18727788E-03  0.00000000E+00
  6.17447645E-03 -2.54452838E-03  0.00000000E+00  2.07917718E-04  1.26709499E-03
  0.00000000E+00  1.27743339E-03 -2.49437848E-04  0.00000000E+00  1.24278847E-04
  1.35040562E-04  0.00000000E+00  1.14397285E-04 -2.02256902E-03  0.00000000E+00
 -3.09956308E-03  2.86311519E-03  0.00000000E+00  3.20459188E-03  0.00000000E+00
 -3.72871071E-04  0.00000000E+00  1.15747805E-03 -1.69864581E-04  0.00000000E+00
  7.94908101E-04 -2.50968677E-04  0.00000000E+00  7.60562420E-04  0.00000000E+00
 -1.78272252E-04  0.00000000E+00 -2.05545283E-04
MO  5                     OCC NO =   2.00000000 ORB. ENERGY =  -0.27080259
  0.00000000E+00  0.00000000E+00  0.00000000E+00  0.00000000E+00  0.00000000E+00
  0.00000000E+00  0.00000000E+00  0.00000000E+00  0.00000000E+00  0.00000000E+00
  0.00000000E+00  0.00000000E+00  0.00000000E+00  0.00000000E+00  0.00000000E+00
  0.00000000E+00  0.00000000E+00  1.17094296E+00  1.43391602E+00  1.44203219E+00
  1.12321959E+00  0.00000000E+00  0.00000000E+00  0.00000000E+00  0.00000000E+00
  0.00000000E+00  1.12988801E-01  0.00000000E+00  0.00000000E+00  5.44274651E-01
  0.00000000E+00  0.00000000E+00  1.60737459E-01  0.00000000E+00  0.00000000E+00
  2.59237468E-02  0.00000000E+00  0.00000000E+00  1.09265715E-03  0.00000000E+00
  0.00000000E+00  0.00000000E+00  0.00000000E+00  0.00000000E+00  0.00000000E+00
  0.00000000E+00  0.00000000E+00  0.00000000E+00 -3.78800773E-02 -4.75323344E-02
  0.00000000E+00  0.00000000E+00  0.00000000E+00  0.00000000E+00  0.00000000E+00
  0.00000000E+00 -3.54147359E-02  0.00000000E+00  0.00000000E+00  0.00000000E+00
  0.00000000E+00  0.00000000E+00 -6.18715953E-03  0.00000000E+00  0.00000000E+00
  0.00000000E+00  0.00000000E+00  0.00000000E+00 -4.54687001E-04  0.00000000E+00
  0.00000000E+00  0.00000000E+00  2.69139502E-02  1.81019623E-02  0.00000000E+00
  0.00000000E+00  0.00000000E+00  0.00000000E+00  0.00000000E+00  0.00000000E+00
  0.00000000E+00  0.00000000E+00 -1.30598271E-02 -8.78386471E-03  0.00000000E+00
  0.00000000E+00  1.22655311E-02  8.24963188E-03  0.00000000E+00  0.00000000E+00
  0.00000000E+00  4.82214657E-03  0.00000000E+00  0.00000000E+00  0.00000000E+00
  0.00000000E+00 -2.31832661E-03  0.00000000E+00  2.13283327E-03  0.00000000E+00
  0.00000000E+00 -2.30948529E-04  0.00000000E+00  0.00000000E+00  0.00000000E+00
  0.00000000E+00  5.66068945E-05  0.00000000E+00  6.11278455E-05  0.00000000E+00
  0.00000000E+00  0.00000000E+00  0.00000000E+00  0.00000000E+00  0.00000000E+00
  0.00000000E+00  0.00000000E+00  0.00000000E+00 -3.06072867E-02 -2.96470211E-03
  0.00000000E+00  0.00000000E+00  0.00000000E+00  0.00000000E+00  0.00000000E+00
  0.00000000E+00  0.00000000E+00  0.00000000E+00  0.00000000E+00  0.00000000E+00
  0.00000000E+00  0.00000000E+00  9.54246804E-03  9.24308495E-04  0.00000000E+00
  0.00000000E+00  6.59960860E-04  6.39255407E-05  0.00000000E+00  0.00000000E+00
  0.00000000E+00  0.00000000E+00  0.00000000E+00  0.00000000E+00  2.38505406E-04
  0.00000000E+00  0.00000000E+00  0.00000000E+00  0.00000000E+00  0.00000000E+00
  0.00000000E+00 -3.50090049E-05  0.00000000E+00 -4.44927970E-05  0.00000000E+00
  0.00000000E+00  0.00000000E+00  0.00000000E+00  0.00000000E+00  0.00000000E+00
  0.00000000E+00  0.00000000E+00  0.00000000E+00  0.00000000E+00  0.00000000E+00
  1.83019399E-02  0.00000000E+00  0.00000000E+00  1.78855949E-02  0.00000000E+00
  0.00000000E+00  1.03437842E-02  0.00000000E+00  0.00000000E+00  1.60729251E-03
  0.00000000E+00  0.00000000E+00 -1.60111073E-02  0.00000000E+00  0.00000000E+00
  1.12960593E-02  0.00000000E+00  0.00000000E+00 -4.05037192E-03  0.00000000E+00
  0.00000000E+00  2.91309203E-03  0.00000000E+00  0.00000000E+00 -6.88541808E-04
  0.00000000E+00  0.00000000E+00  5.04261203E-04  0.00000000E+00  0.00000000E+00
  5.18905218E-03  0.00000000E+00  0.00000000E+00 -9.47249733E-03  0.00000000E+00
 -2.19367645E-03  0.00000000E+00  1.39197716E-03  0.00000000E+00  0.00000000E+00
  9.57872865E-05  0.00000000E+00  0.00000000E+00 -2.15470393E-04  0.00000000E+00
 -4.41223083E-05  0.00000000E+00  3.65796385E-05  0.00000000E+00  0.00000000E+00
  0.00000000E+00  0.00000000E+00  0.00000000E+00  0.00000000E+00  0.00000000E+00
  0.00000000E+00  0.00000000E+00  0.00000000E+00  0.00000000E+00  1.83019399E-02
  0.00000000E+00  0.00000000E+00  1.78855949E-02  0.00000000E+00  0.00000000E+00
  1.03437842E-02  0.00000000E+00  0.00000000E+00  1.60729251E-03  0.00000000E+00
  0.00000000E+00  1.60111073E-02  0.00000000E+00  0.00000000E+00  1.12960593E-02
  0.00000000E+00  0.00000000E+00  4.05037192E-03  0.00000000E+00  0.00000000E+00
  2.91309203E-03  0.00000000E+00  0.00000000E+00  6.88541808E-04  0.00000000E+00
  0.00000000E+00  5.04261203E-04  0.00000000E+00  0.00000000E+00  5.18905218E-03
  0.00000000E+00  0.00000000E+00  9.47249733E-03  0.00000000E+00 -2.19367645E-03
  0.00000000E+00  1.39197716E-03  0.00000000E+00  0.00000000E+00  9.57872865E-05
  0.00000000E+00  0.00000000E+00  2.15470393E-04  0.00000000E+00 -4.41223083E-05
  0.00000000E+00  3.65796385E-05  0.00000000E+00
END DATA
RHF      ENERGY =        0.0000000000   VIRIAL(-V/T)  =   0.00000000
