From PySCF
GAUSSIAN              5 MOL ORBITALS     42 PRIMITIVES        3 NUCLEI
  O    1    (CENTRE  1)   0.00000000  0.00000000  0.22226052  CHARGE = 8.0
  H    2    (CENTRE  2)   1.43843496  0.00000000 -0.88904206  CHARGE = 1.0
  H    3    (CENTRE  3)  -1.43843496  0.00000000 -0.88904206  CHARGE = 1.0
CENTRE ASSIGNMENTS    1  1  1  1  1  1  1  1  1  1  1  1  1  1  1  1  1  1  1  1
CENTRE ASSIGNMENTS    1  1  1  1  1  1  1  1  1  1  2  2  2  2  2  2  3  3  3  3
CENTRE ASSIGNMENTS    3  3
TYPE ASSIGNMENTS      1  1  1  1  1  1  1  1  1  1  1  1  2  2  2  2  2  2  3  3
TYPE ASSIGNMENTS      3  3  3  3  4  4  4  4  4  4  1  1  1  1  1  1  1  1  1  1
TYPE ASSIGNMENTS      1  1
EXPONENTS  1.3555842E+03 2.4854489E+02 6.9533902E+01 2.3886772E+01 9.2759326E+00
EXPONENTS  3.8203413E+00 5.2187762E+01 1.0329320E+01 3.2103450E+00 1.2351354E+00
EXPONENTS  5.3642016E-01 2.4588061E-01 5.2187762E+01 1.0329320E+01 3.2103450E+00
EXPONENTS  1.2351354E+00 5.3642016E-01 2.4588061E-01 5.2187762E+01 1.0329320E+01
EXPONENTS  3.2103450E+00 1.2351354E+00 5.3642016E-01 2.4588061E-01 5.2187762E+01
EXPONENTS  1.0329320E+01 3.2103450E+00 1.2351354E+00 5.3642016E-01 2.4588061E-01
EXPONENTS  3.5523221E+01 6.5131437E+00 1.8221429E+00 6.2595527E-01 2.4307675E-01
EXPONENTS  1.0011243E-01 3.5523221E+01 6.5131437E+00 1.8221429E+00 6.2595527E-01
EXPONENTS  2.4307675E-01 1.0011243E-01
MO  1                     OCC NO =   2.00000000 ORB. ENERGY = -18.77215507
  1.45315347E+00  2.19327235E+00  2.88069134E+00  2.84204253E+00  1.57135755E+00
  2.52804779E-01 -3.55918065E-03 -3.74490948E-03 -1.12075001E-03  4.05519777E-03
  5.15938138E-03  1.16251004E-03  0.00000000E+00  0.00000000E+00  0.00000000E+00
  0.00000000E+00  0.00000000E+00  0.00000000E+00  0.00000000E+00  0.00000000E+00
  0.00000000E+00  0.00000000E+00  0.00000000E+00  0.00000000E+00 -2.81697248E-03
 -3.72702463E-03 -3.99162783E-03 -2.90754418E-03 -1.04427941E-03 -9.40655683E-05
 -4.85145144E-04 -7.32238853E-04 -9.61738348E-04 -9.48835179E-04 -5.24608378E-04
 -8.44005907E-05 -4.85145144E-04 -7.32238853E-04 -9.61738348E-04 -9.48835179E-04
 -5.24608378E-04 -8.44005907E-05
MO  2                     OCC NO =   2.00000000 ORB. ENERGY =  -0.85283344
 -3.13454379E-01 -4.73102694E-01 -6.21383312E-01 -6.13046519E-01 -3.38951745E-01
 -5.45315872E-02 -1.45687222E-01 -1.53289623E-01 -4.58754335E-02  1.65990591E-01
  2.11187915E-01  4.75847887E-02  0.00000000E+00  0.00000000E+00  0.00000000E+00
  0.00000000E+00  0.00000000E+00  0.00000000E+00  0.00000000E+00  0.00000000E+00
  0.00000000E+00  0.00000000E+00  0.00000000E+00  0.00000000E+00 -1.55034577E-01
 -2.05120103E-01 -2.19682775E-01 -1.60019270E-01 -5.74728426E-02 -5.17698190E-03
  1.63661915E-02  2.47018062E-02  3.24438865E-02  3.20086029E-02  1.76974691E-02
  2.84722263E-03  1.63661915E-02  2.47018062E-02  3.24438865E-02  3.20086029E-02
  1.76974691E-02  2.84722263E-03
MO  3                     OCC NO =   2.00000000 ORB. ENERGY =  -0.39637137
  0.00000000E+00  0.00000000E+00  0.00000000E+00  0.00000000E+00  0.00000000E+00
  0.00000000E+00  0.00000000E+00  0.00000000E+00  0.00000000E+00  0.00000000E+00
  0.00000000E+00  0.00000000E+00  4.58381117E-01  6.06465885E-01  6.49522434E-01
  4.73119051E-01  1.69926389E-01  1.53064613E-02  0.00000000E+00  0.00000000E+00
  0.00000000E+00  0.00000000E+00  0.00000000E+00  0.00000000E+00  0.00000000E+00
  0.00000000E+00  0.00000000E+00  0.00000000E+00  0.00000000E+00  0.00000000E+00
  4.20474826E-02  6.34630704E-02  8.33537694E-02  8.22354529E-02  4.54677572E-02
  7.31499101E-03 -4.20474826E-02 -6.34630704E-02 -8.33537694E-02 -8.22354529E-02
 -4.54677572E-02 -7.31499101E-03
MO  4                     OCC NO =   2.00000000 ORB. ENERGY =  -0.17481808
 -1.73946442E-01 -2.62540696E-01 -3.44826628E-01 -3.40200260E-01 -1.88095794E-01
 -3.02614232E-02 -1.14592342E-01 -1.20572117E-01 -3.60839700E-02  1.30562243E-01
  1.66112837E-01  3.74284874E-02  0.00000000E+00  0.00000000E+00  0.00000000E+00
  0.00000000E+00  0.00000000E+00  0.00000000E+00  0.00000000E+00  0.00000000E+00
  0.00000000E+00  0.00000000E+00  0.00000000E+00  0.00000000E+00  5.61247711E-01
  7.42564599E-01  7.95283588E-01  5.79293027E-01  2.08060047E-01  1.87414273E-02
 -2.66908524E-02 -4.02850145E-02 -5.29112095E-02 -5.22013259E-02 -2.88619704E-02
 -4.64340155E-03 -2.66908524E-02 -4.02850145E-02 -5.29112095E-02 -5.22013259E-02
 -2.88619704E-02 -4.64340155E-03
MO  5                     OCC NO =   2.00000000 ORB. ENERGY =  -0.07907789
  0.00000000E+00  0.00000000E+00  0.00000000E+00  0.00000000E+00  0.00000000E+00
  0.00000000E+00  0.00000000E+00  0.00000000E+00  0.00000000E+00  0.00000000E+00
  0.00000000E+00  0.00000000E+00  0.00000000E+00  0.00000000E+00  0.00000000E+00
  0.00000000E+00  0.00000000E+00  0.00000000E+00  7.51715887E-01  9.94565492E-01
  1.06517549E+00  7.75885162E-01  2.78668473E-01  2.51016233E-02  0.00000000E+00
  0.00000000E+00  0.00000000E+00  0.00000000E+00  0.00000000E+00  0.00000000E+00
  0.00000000E+00  0.00000000E+00  0.00000000E+00  0.00000000E+00  0.00000000E+00
  0.00000000E+00  0.00000000E+00  0.00000000E+00  0.00000000E+00  0.00000000E+00
  0.00000000E+00  0.00000000E+00
END DATA
RHF      ENERGY =        0.0000000000   VIRIAL(-V/T)  =   0.00000000
