#INFO: **** input file is /home/jluis/tmp/pypmd/h2o.py ****
#!/usr/bin/env python

import numpy, time
from pyscf import gto, scf, lib, dft
from pyscf.tools import wfn_format

name = 'h2o'

mol = gto.Mole()
mol.atom = '''
O      0.000000      0.000000      0.118351
H      0.000000      0.761187     -0.469725
H      0.000000     -0.761187     -0.469725
'''
mol.basis = 'sto-6g'
mol.verbose = 4
mol.spin = 0
mol.symmetry = 1
mol.charge = 0
mol.build()

mf = dft.RKS(mol)
mf.chkfile = name+'.chk'
mf.max_cycle = 150
mf.grids.atom_grid = {'H': (20,110), 'O': (20,110)}
mf.grids.prune = None
mf.xc = 'rpw86,pbe'
mf.kernel()

wfn_file = name + '.wfn'
with open(wfn_file, 'w') as f2:
    wfn_format.write_mo(f2, mol, mf.mo_coeff[:,mf.mo_occ>0], \
    mo_occ=mf.mo_occ[mf.mo_occ>0])

#INFO: ******************** input file end ********************


System: ('Linux', 'cromo', '4.9.0-0.bpo.3-amd64', '#1 SMP Debian 4.9.30-2+deb9u5~bpo8+1 (2017-09-28)', 'x86_64', '')  Threads 4
Python 2.7.14 (default, Apr 10 2018, 19:21:27) 
[GCC 7.3.0]
numpy 1.15.4  scipy 1.2.0
Date: Sat Dec 29 22:37:13 2018
PySCF version 1.6b
PySCF path  /home/jluis/src/pyscf/dev/pyscf
GIT ORIG_HEAD 26de5e7c8230210833f9d25fbbcde03cf2076fdc
GIT HEAD      ref: refs/heads/dev
GIT dev branch  21b86f213f74edcb007f36d31e83475226de7b3a

[ENV] PYSCF_MAX_MEMORY 32000
[ENV] PYSCF_TMPDIR /scratch-ssd/jluis
[CONFIG] conf_file None
[INPUT] verbose = 4
[INPUT] num. atoms = 3
[INPUT] num. electrons = 10
[INPUT] charge = 0
[INPUT] spin (= nelec alpha-beta = 2S) = 0
[INPUT] symmetry 1 subgroup None
[INPUT] Mole.unit = angstrom
[INPUT]  1 O      0.000000000000   0.000000000000   0.117615200000 AA    0.000000000000   0.000000000000   0.222260516086 Bohr
[INPUT]  2 H      0.761187000000   0.000000000000  -0.470460800000 AA    1.438434959579   0.000000000000  -0.889042064344 Bohr
[INPUT]  3 H     -0.761187000000   0.000000000000  -0.470460800000 AA   -1.438434959579   0.000000000000  -0.889042064344 Bohr

nuclear repulsion = 9.14985900416406
point group symmetry = C2v
num. orbitals of irrep A1 = 4
num. orbitals of irrep B1 = 2
num. orbitals of irrep B2 = 1
number of shells = 5
number of NR pGTOs = 42
number of NR cGTOs = 7
basis = sto-6g
ecp = {}
CPU time:         0.28


******** <class 'pyscf.dft.rks_symm.SymAdaptedRKS'> ********
method = SymAdaptedRKS-SymAdaptedRHF-RHF
initial guess = minao
damping factor = 0
level shift factor = 0
DIIS = <class 'pyscf.scf.diis.CDIIS'>
DIIS start cycle = 1
DIIS space = 8
SCF tol = 1e-09
SCF gradient tol = None
max. SCF cycles = 150
direct_scf = True
direct_scf_tol = 1e-13
chkfile to save SCF result = h2o.chk
max_memory 32000 MB (current use 74 MB)
XC functionals = rpw86,pbe
radial grids: 
    Treutler-Ahlrichs (JCP 102, 346 (M4)) radial grids
    
becke partition: Becke, JCP, 88, 2547 (1988)
pruning grids: None
grids dens level: 3
symmetrized grids: 1
atomic radii adjust function: <function treutler_atomic_radii_adjust at 0x2abf51a950c8>
User specified grid scheme {'H': (20, 110), 'O': (20, 110)}
Freeze 0 electrons in irreps []
    10 free electrons in irreps A1 B1 B2
Set gradient conv threshold to 3.16228e-05
tot grids = 6600
init E= -76.2296161627816
HOMO (B2) = -0.326586482439765  LUMO (A1) = 0.214709447496429
cycle= 1 E= -76.0839301804198  delta_E= 0.146  |g|= 0.483  |ddm|= 1.67
HOMO (B2) = 0.0819636256176333  LUMO (A1) = 0.363483749383423
cycle= 2 E= -76.0792256558162  delta_E= 0.0047  |g|= 0.505  |ddm|= 1.43
HOMO (B2) = -0.0759386125167961  LUMO (A1) = 0.290800475825433
cycle= 3 E= -76.1657338743611  delta_E= -0.0865  |g|= 0.00322  |ddm|= 0.761
HOMO (B2) = -0.0789067610177834  LUMO (A1) = 0.28691919631486
cycle= 4 E= -76.1657373925608  delta_E= -3.52e-06  |g|= 0.000607  |ddm|= 0.00615
HOMO (B2) = -0.0790711159239345  LUMO (A1) = 0.286855097822969
cycle= 5 E= -76.165737528176  delta_E= -1.36e-07  |g|= 1.36e-05  |ddm|= 0.00106
HOMO (B2) = -0.0790774524304902  LUMO (A1) = 0.286849509417205
cycle= 6 E= -76.1657375282364  delta_E= -6.04e-11  |g|= 5.77e-07  |ddm|= 1.82e-05
HOMO (B2) = -0.0790778881202652  LUMO (A1) = 0.286849365589748
Extra cycle  E= -76.1657375282364  delta_E= -1.42e-14  |g|= 5.98e-07  |ddm|= 1.68e-06
converged SCF energy = -76.1657375282364
