From PySCF
GAUSSIAN              6 MOL ORBITALS     74 PRIMITIVES        2 NUCLEI
  F    1    (CENTRE  1)   0.00000000  0.00000000 -0.73883567  CHARGE = 9.0
  Li   2    (CENTRE  2)   0.00000000  0.00000000  2.21650701  CHARGE = 3.0
CENTRE ASSIGNMENTS    1  1  1  1  1  1  1  1  1  1  1  1  1  1  1  1  1  1  1  1
CENTRE ASSIGNMENTS    1  1  1  1  1  1  1  1  1  1  1  1  1  1  1  1  1  2  2  2
CENTRE ASSIGNMENTS    2  2  2  2  2  2  2  2  2  2  2  2  2  2  2  2  2  2  2  2
CENTRE ASSIGNMENTS    2  2  2  2  2  2  2  2  2  2  2  2  2  2
TYPE ASSIGNMENTS      1  1  1  1  1  1  1  1  1  1  2  2  2  3  3  3  4  4  4  2
TYPE ASSIGNMENTS      3  4  2  3  4  5  8  9  6 10  7  5  8  9  6 10  7  1  1  1
TYPE ASSIGNMENTS      1  1  1  1  1  1  1  2  2  2  3  3  3  4  4  4  2  3  4  2
TYPE ASSIGNMENTS      3  4  5  8  9  6 10  7  5  8  9  6 10  7
EXPONENTS  1.4710000E+04 2.2070000E+03 5.0280000E+02 1.4260000E+02 4.6470000E+01
EXPONENTS  1.6700000E+01 6.3560000E+00 1.3160000E+00 3.8970000E-01 9.8630000E-02
EXPONENTS  2.2670000E+01 4.9770000E+00 1.3470000E+00 2.2670000E+01 4.9770000E+00
EXPONENTS  1.3470000E+00 2.2670000E+01 4.9770000E+00 1.3470000E+00 3.4710000E-01
EXPONENTS  3.4710000E-01 3.4710000E-01 8.5020000E-02 8.5020000E-02 8.5020000E-02
EXPONENTS  1.6400000E+00 1.6400000E+00 1.6400000E+00 1.6400000E+00 1.6400000E+00
EXPONENTS  1.6400000E+00 4.6400000E-01 4.6400000E-01 4.6400000E-01 4.6400000E-01
EXPONENTS  4.6400000E-01 4.6400000E-01 1.4690000E+03 2.2050000E+02 5.0260000E+01
EXPONENTS  1.4240000E+01 4.5810000E+00 1.5800000E+00 5.6400000E-01 7.3450000E-02
EXPONENTS  2.8050000E-02 8.6400000E-03 1.5340000E+00 2.7490000E-01 7.3620000E-02
EXPONENTS  1.5340000E+00 2.7490000E-01 7.3620000E-02 1.5340000E+00 2.7490000E-01
EXPONENTS  7.3620000E-02 2.4030000E-02 2.4030000E-02 2.4030000E-02 5.7900000E-03
EXPONENTS  5.7900000E-03 5.7900000E-03 1.2390000E-01 1.2390000E-01 1.2390000E-01
EXPONENTS  1.2390000E-01 1.2390000E-01 1.2390000E-01 7.2500000E-02 7.2500000E-02
EXPONENTS  7.2500000E-02 7.2500000E-02 7.2500000E-02 7.2500000E-02
MO  1                     OCC NO =   2.00000000 ORB. ENERGY = 0.0000
  6.86369200E-01  1.27434596E+00  2.13913644E+00  3.13045304E+00  3.63807391E+00
  2.64079012E+00  7.55103243E-01  1.42953893E-02 -1.50831586E-03  2.13454435E-04
  0.00000000E+00  0.00000000E+00  0.00000000E+00  0.00000000E+00  0.00000000E+00
  0.00000000E+00  1.36832650E-03  1.08005070E-03  4.54841656E-04  0.00000000E+00
  0.00000000E+00 -1.04654350E-04  0.00000000E+00  0.00000000E+00  1.84354306E-05
 -1.33542359E-05  0.00000000E+00  0.00000000E+00 -1.33542359E-05  0.00000000E+00
  2.67084717E-05 -1.01754714E-05  0.00000000E+00  0.00000000E+00 -1.01754714E-05
  0.00000000E+00  2.03509427E-05 -4.04326640E-06 -7.49991199E-06 -1.24611733E-05
 -1.78152727E-05 -1.97368890E-05 -1.43005956E-05 -4.14245327E-06  1.89562867E-07
 -2.38262952E-05  2.38136697E-06  0.00000000E+00  0.00000000E+00  0.00000000E+00
  0.00000000E+00  0.00000000E+00  0.00000000E+00 -4.00429501E-05 -2.85057061E-05
 -1.97539870E-05  0.00000000E+00  0.00000000E+00  5.93171504E-06  0.00000000E+00
  0.00000000E+00 -2.76490693E-07 -1.57087829E-05  0.00000000E+00  0.00000000E+00
 -1.57087829E-05  0.00000000E+00  3.14175658E-05  3.24074793E-06  0.00000000E+00
  0.00000000E+00  3.24074793E-06  0.00000000E+00 -6.48149586E-06
MO  2                     OCC NO =   2.00000000 ORB. ENERGY = 0.0000
 -4.00834348E-03 -7.64534178E-03 -1.25394707E-02 -1.99140397E-02 -2.36780579E-02
 -2.49684815E-02 -7.92383874E-03  1.17233183E-02  4.09089557E-03  5.60391065E-03
  0.00000000E+00  0.00000000E+00  0.00000000E+00  0.00000000E+00  0.00000000E+00
  0.00000000E+00  4.60999160E-02  3.63876944E-02  1.53239465E-02  0.00000000E+00
  0.00000000E+00  2.59989220E-03  0.00000000E+00  0.00000000E+00  7.22326717E-04
 -3.30551396E-03  0.00000000E+00  0.00000000E+00 -3.30551396E-03  0.00000000E+00
  6.61102792E-03  2.73789351E-04  0.00000000E+00  0.00000000E+00  2.73789351E-04
  0.00000000E+00 -5.47578702E-04  1.28491305E-01  2.38340403E-01  3.95973541E-01
  5.65981734E-01  6.26637828E-01  4.53034122E-01  1.29187591E-01 -2.73501901E-03
 -2.72463164E-04  4.31613795E-05  0.00000000E+00  0.00000000E+00  0.00000000E+00
  0.00000000E+00  0.00000000E+00  0.00000000E+00  3.09569320E-03  2.20375673E-03
  1.52716728E-03  0.00000000E+00  0.00000000E+00 -7.08301490E-05  0.00000000E+00
  0.00000000E+00  2.79886481E-06  1.46266626E-04  0.00000000E+00  0.00000000E+00
  1.46266626E-04  0.00000000E+00 -2.92533253E-04  2.74236544E-05  0.00000000E+00
  0.00000000E+00  2.74236544E-05  0.00000000E+00 -5.48473088E-05
MO  3                     OCC NO =   2.00000000 ORB. ENERGY = 0.0000
 -1.54477965E-01 -2.94850758E-01 -4.83307707E-01 -7.69124799E-01 -9.14997567E-01
 -9.71944609E-01 -3.08941520E-01  4.63780246E-01  1.99115446E-01 -2.96557106E-03
  0.00000000E+00  0.00000000E+00  0.00000000E+00  0.00000000E+00  0.00000000E+00
  0.00000000E+00  9.21824807E-02  7.27616930E-02  3.06421253E-02  0.00000000E+00
  0.00000000E+00  1.12831103E-02  0.00000000E+00  0.00000000E+00 -1.38057135E-03
 -1.92795945E-03  0.00000000E+00  0.00000000E+00 -1.92795945E-03  0.00000000E+00
  3.85591889E-03 -2.12443681E-03  0.00000000E+00  0.00000000E+00 -2.12443681E-03
  0.00000000E+00  4.24887361E-03 -8.77823264E-03 -1.62827405E-02 -2.71137499E-02
 -3.90062886E-02 -4.39653589E-02 -3.37772661E-02 -1.36953048E-02  6.70874926E-03
 -3.38346437E-04  3.57505448E-06  0.00000000E+00  0.00000000E+00  0.00000000E+00
  0.00000000E+00  0.00000000E+00  0.00000000E+00 -4.87905894E-03 -3.47329605E-03
 -2.40693722E-03  0.00000000E+00  0.00000000E+00  1.37059241E-04  0.00000000E+00
  0.00000000E+00 -4.62300877E-06 -1.46447714E-04  0.00000000E+00  0.00000000E+00
 -1.46447714E-04  0.00000000E+00  2.92895429E-04 -5.48106925E-05  0.00000000E+00
  0.00000000E+00 -5.48106925E-05  0.00000000E+00  1.09621385E-04
MO  4                     OCC NO =   2.00000000 ORB. ENERGY = 0.0000
  8.46282424E-03  1.64604968E-02  2.65484670E-02  4.46054953E-02  5.38068002E-02
  6.76923799E-02  2.22424800E-02 -4.32738169E-02 -6.09573186E-03 -3.37250106E-02
  0.00000000E+00  0.00000000E+00  0.00000000E+00  0.00000000E+00  0.00000000E+00
  0.00000000E+00  2.89308655E+00  2.28357790E+00  9.61682956E-01  0.00000000E+00
  0.00000000E+00  1.74941933E-01  0.00000000E+00  0.00000000E+00  1.06207978E-03
 -4.42142186E-03  0.00000000E+00  0.00000000E+00 -4.42142186E-03  0.00000000E+00
  8.84284372E-03 -5.92753279E-03  0.00000000E+00  0.00000000E+00 -5.92753279E-03
  0.00000000E+00  1.18550656E-02 -1.23483906E-02 -2.29047163E-02 -3.82858189E-02
 -5.56668040E-02 -6.45539228E-02 -5.41424804E-02 -3.06816128E-02  2.47275574E-02
 -6.47277221E-04  2.58256495E-05  0.00000000E+00  0.00000000E+00  0.00000000E+00
  0.00000000E+00  0.00000000E+00  0.00000000E+00 -2.03655966E-02 -1.44978258E-02
 -1.00467556E-02  0.00000000E+00  0.00000000E+00  4.60836172E-04  0.00000000E+00
  0.00000000E+00 -1.90501605E-05 -4.11869786E-04  0.00000000E+00  0.00000000E+00
 -4.11869786E-04  0.00000000E+00  8.23739572E-04 -2.86604520E-04  0.00000000E+00
  0.00000000E+00 -2.86604520E-04  0.00000000E+00  5.73209041E-04
MO  5                     OCC NO =   2.00000000 ORB. ENERGY = 0.0000
  0.00000000E+00  0.00000000E+00  0.00000000E+00  0.00000000E+00  0.00000000E+00
  0.00000000E+00  0.00000000E+00  0.00000000E+00  0.00000000E+00  0.00000000E+00
  2.87510646E+00  2.26938581E+00  9.55706243E-01  0.00000000E+00  0.00000000E+00
  0.00000000E+00  0.00000000E+00  0.00000000E+00  0.00000000E+00  1.73562880E-01
  0.00000000E+00  0.00000000E+00  4.76220199E-03  0.00000000E+00  0.00000000E+00
  0.00000000E+00  0.00000000E+00  1.83092663E-02  0.00000000E+00  0.00000000E+00
  0.00000000E+00  0.00000000E+00  0.00000000E+00  1.52615814E-02  0.00000000E+00
  0.00000000E+00  0.00000000E+00  0.00000000E+00  0.00000000E+00  0.00000000E+00
  0.00000000E+00  0.00000000E+00  0.00000000E+00  0.00000000E+00  0.00000000E+00
  0.00000000E+00  0.00000000E+00  7.58044084E-03  5.39635113E-03  3.73958286E-03
  0.00000000E+00  0.00000000E+00  0.00000000E+00  0.00000000E+00  0.00000000E+00
  0.00000000E+00 -3.20271881E-04  0.00000000E+00  0.00000000E+00  1.55465244E-05
  0.00000000E+00  0.00000000E+00  0.00000000E+00  0.00000000E+00 -1.68917530E-03
  0.00000000E+00  0.00000000E+00  0.00000000E+00  0.00000000E+00  0.00000000E+00
 -2.16628800E-04  0.00000000E+00  0.00000000E+00  0.00000000E+00
MO  6                     OCC NO =   2.00000000 ORB. ENERGY = 0.0000
  0.00000000E+00  0.00000000E+00  0.00000000E+00  0.00000000E+00  0.00000000E+00
  0.00000000E+00  0.00000000E+00  0.00000000E+00  0.00000000E+00  0.00000000E+00
  0.00000000E+00  0.00000000E+00  0.00000000E+00  2.87510646E+00  2.26938581E+00
  9.55706243E-01  0.00000000E+00  0.00000000E+00  0.00000000E+00  0.00000000E+00
  1.73562880E-01  0.00000000E+00  0.00000000E+00  4.76220199E-03  0.00000000E+00
  0.00000000E+00  0.00000000E+00  0.00000000E+00  0.00000000E+00  1.83092663E-02
  0.00000000E+00  0.00000000E+00  0.00000000E+00  0.00000000E+00  0.00000000E+00
  1.52615814E-02  0.00000000E+00  0.00000000E+00  0.00000000E+00  0.00000000E+00
  0.00000000E+00  0.00000000E+00  0.00000000E+00  0.00000000E+00  0.00000000E+00
  0.00000000E+00  0.00000000E+00  0.00000000E+00  0.00000000E+00  0.00000000E+00
  7.58044084E-03  5.39635113E-03  3.73958286E-03  0.00000000E+00  0.00000000E+00
  0.00000000E+00  0.00000000E+00 -3.20271881E-04  0.00000000E+00  0.00000000E+00
  1.55465244E-05  0.00000000E+00  0.00000000E+00  0.00000000E+00  0.00000000E+00
  0.00000000E+00 -1.68917530E-03  0.00000000E+00  0.00000000E+00  0.00000000E+00
  0.00000000E+00  0.00000000E+00 -2.16628800E-04  0.00000000E+00
END DATA
RHF
