From PySCF
GAUSSIAN              5 MOL ORBITALS    273 PRIMITIVES        3 NUCLEI
  O    1    (CENTRE  1)   0.00000000  0.00000000  0.22166487  CHARGE = 8.0
  H    2    (CENTRE  2)   1.43090062  0.00000000 -0.88665950  CHARGE = 1.0
  H    3    (CENTRE  3)  -1.43090062  0.00000000 -0.88665950  CHARGE = 1.0
CENTRE ASSIGNMENTS    1  1  1  1  1  1  1  1  1  1  1  1  1  1  1  1  1  1  1  1
CENTRE ASSIGNMENTS    1  1  1  1  1  1  1  1  1  1  1  1  1  1  1  1  1  1  1  1
CENTRE ASSIGNMENTS    1  1  1  1  1  1  1  1  1  1  1  1  1  1  1  1  1  1  1  1
CENTRE ASSIGNMENTS    1  1  1  1  1  1  1  1  1  1  1  1  1  1  1  1  1  1  1  1
CENTRE ASSIGNMENTS    1  1  1  1  1  1  1  1  1  1  1  1  1  1  1  1  1  1  1  1
CENTRE ASSIGNMENTS    1  1  1  1  1  1  1  1  1  1  1  1  1  1  1  1  1  1  1  1
CENTRE ASSIGNMENTS    1  1  1  1  1  1  1  1  1  1  1  1  1  1  1  1  1  1  1  1
CENTRE ASSIGNMENTS    1  1  1  1  1  1  1  1  1  1  1  1  1  1  1  2  2  2  2  2
CENTRE ASSIGNMENTS    2  2  2  2  2  2  2  2  2  2  2  2  2  2  2  2  2  2  2  2
CENTRE ASSIGNMENTS    2  2  2  2  2  2  2  2  2  2  2  2  2  2  2  2  2  2  2  2
CENTRE ASSIGNMENTS    2  2  2  2  2  2  2  2  2  2  2  2  2  2  3  3  3  3  3  3
CENTRE ASSIGNMENTS    3  3  3  3  3  3  3  3  3  3  3  3  3  3  3  3  3  3  3  3
CENTRE ASSIGNMENTS    3  3  3  3  3  3  3  3  3  3  3  3  3  3  3  3  3  3  3  3
CENTRE ASSIGNMENTS    3  3  3  3  3  3  3  3  3  3  3  3  3
TYPE ASSIGNMENTS      1  1  1  1  1  1  1  1  1  1  1  1  1  2  2  2  2  3  3  3
TYPE ASSIGNMENTS      3  4  4  4  4  2  3  4  2  3  4  2  3  4  2  3  4  2  3  4
TYPE ASSIGNMENTS      5  5  8  8  9  9  6  6 10 10  7  7  5  8  9  6 10  7  5  8
TYPE ASSIGNMENTS      9  6 10  7  5  8  9  6 10  7 11 11 14 14 15 15 17 17 20 20
TYPE ASSIGNMENTS     18 18 12 12 16 16 19 19 13 13 11 14 15 17 20 18 12 16 19 13
TYPE ASSIGNMENTS     11 14 15 17 20 18 12 16 19 13 21 21 24 24 25 25 30 30 33 33
TYPE ASSIGNMENTS     31 31 26 26 34 34 35 35 28 28 22 22 27 27 32 32 29 29 23 23
TYPE ASSIGNMENTS     21 24 25 30 33 31 26 34 35 28 22 27 32 29 23  1  1  1  1  1
TYPE ASSIGNMENTS      1  1  1  1  2  3  4  2  3  4  2  3  4  2  3  4  5  8  9  6
TYPE ASSIGNMENTS     10  7  5  8  9  6 10  7  5  8  9  6 10  7 11 14 15 17 20 18
TYPE ASSIGNMENTS     12 16 19 13 11 14 15 17 20 18 12 16 19 13  1  1  1  1  1  1
TYPE ASSIGNMENTS      1  1  1  2  3  4  2  3  4  2  3  4  2  3  4  5  8  9  6 10
TYPE ASSIGNMENTS      7  5  8  9  6 10  7  5  8  9  6 10  7 11 14 15 17 20 18 12
TYPE ASSIGNMENTS     16 19 13 11 14 15 17 20 18 12 16 19 13
EXPONENTS  1.1371829E+04 1.7060929E+03 3.8826799E+02 1.0975075E+02 3.5465902E+01
EXPONENTS  1.2534049E+01 9.8428230E+00 1.0495500E+00 4.5888600E+00 1.9723430E+00
EXPONENTS  4.3265900E-01 1.9162800E-01 6.3876000E-02 1.1164360E+02 2.6229036E+01
EXPONENTS  8.1625280E+00 2.9239230E+00 1.1164360E+02 2.6229036E+01 8.1625280E+00
EXPONENTS  2.9239230E+00 1.1164360E+02 2.6229036E+01 8.1625280E+00 2.9239230E+00
EXPONENTS  2.5608557E+01 2.5608557E+01 2.5608557E+01 1.1057210E+00 1.1057210E+00
EXPONENTS  1.1057210E+00 4.1363600E-01 4.1363600E-01 4.1363600E-01 1.4797700E-01
EXPONENTS  1.4797700E-01 1.4797700E-01 4.9325700E-02 4.9325700E-02 4.9325700E-02
EXPONENTS  1.0520368E+01 2.9714730E+00 1.0520368E+01 2.9714730E+00 1.0520368E+01
EXPONENTS  2.9714730E+00 1.0520368E+01 2.9714730E+00 1.0520368E+01 2.9714730E+00
EXPONENTS  1.0520368E+01 2.9714730E+00 1.1683940E+00 1.1683940E+00 1.1683940E+00
EXPONENTS  1.1683940E+00 1.1683940E+00 1.1683940E+00 4.2681900E-01 4.2681900E-01
EXPONENTS  4.2681900E-01 4.2681900E-01 4.2681900E-01 4.2681900E-01 1.4227300E-01
EXPONENTS  1.4227300E-01 1.4227300E-01 1.4227300E-01 1.4227300E-01 1.4227300E-01
EXPONENTS  4.8912290E+00 1.9686530E+00 4.8912290E+00 1.9686530E+00 4.8912290E+00
EXPONENTS  1.9686530E+00 4.8912290E+00 1.9686530E+00 4.8912290E+00 1.9686530E+00
EXPONENTS  4.8912290E+00 1.9686530E+00 4.8912290E+00 1.9686530E+00 4.8912290E+00
EXPONENTS  1.9686530E+00 4.8912290E+00 1.9686530E+00 4.8912290E+00 1.9686530E+00
EXPONENTS  7.4764400E-01 7.4764400E-01 7.4764400E-01 7.4764400E-01 7.4764400E-01
EXPONENTS  7.4764400E-01 7.4764400E-01 7.4764400E-01 7.4764400E-01 7.4764400E-01
EXPONENTS  2.4921470E-01 2.4921470E-01 2.4921470E-01 2.4921470E-01 2.4921470E-01
EXPONENTS  2.4921470E-01 2.4921470E-01 2.4921470E-01 2.4921470E-01 2.4921470E-01
EXPONENTS  2.6377970E+00 9.7211900E-01 2.6377970E+00 9.7211900E-01 2.6377970E+00
EXPONENTS  9.7211900E-01 2.6377970E+00 9.7211900E-01 2.6377970E+00 9.7211900E-01
EXPONENTS  2.6377970E+00 9.7211900E-01 2.6377970E+00 9.7211900E-01 2.6377970E+00
EXPONENTS  9.7211900E-01 2.6377970E+00 9.7211900E-01 2.6377970E+00 9.7211900E-01
EXPONENTS  2.6377970E+00 9.7211900E-01 2.6377970E+00 9.7211900E-01 2.6377970E+00
EXPONENTS  9.7211900E-01 2.6377970E+00 9.7211900E-01 2.6377970E+00 9.7211900E-01
EXPONENTS  3.3189570E-01 3.3189570E-01 3.3189570E-01 3.3189570E-01 3.3189570E-01
EXPONENTS  3.3189570E-01 3.3189570E-01 3.3189570E-01 3.3189570E-01 3.3189570E-01
EXPONENTS  3.3189570E-01 3.3189570E-01 3.3189570E-01 3.3189570E-01 3.3189570E-01
EXPONENTS  4.1855801E+02 6.2745349E+01 1.4279584E+01 4.0418170E+00 1.3163895E+00
EXPONENTS  4.7346190E-01 1.8279990E-01 7.2884400E-02 2.4294800E-02 2.8606730E+00
EXPONENTS  2.8606730E+00 2.8606730E+00 8.8819000E-01 8.8819000E-01 8.8819000E-01
EXPONENTS  3.0377600E-01 3.0377600E-01 3.0377600E-01 1.0125870E-01 1.0125870E-01
EXPONENTS  1.0125870E-01 1.7706130E+00 1.7706130E+00 1.7706130E+00 1.7706130E+00
EXPONENTS  1.7706130E+00 1.7706130E+00 5.9308100E-01 5.9308100E-01 5.9308100E-01
EXPONENTS  5.9308100E-01 5.9308100E-01 5.9308100E-01 1.9769370E-01 1.9769370E-01
EXPONENTS  1.9769370E-01 1.9769370E-01 1.9769370E-01 1.9769370E-01 1.4514450E+00
EXPONENTS  1.4514450E+00 1.4514450E+00 1.4514450E+00 1.4514450E+00 1.4514450E+00
EXPONENTS  1.4514450E+00 1.4514450E+00 1.4514450E+00 1.4514450E+00 4.8381500E-01
EXPONENTS  4.8381500E-01 4.8381500E-01 4.8381500E-01 4.8381500E-01 4.8381500E-01
EXPONENTS  4.8381500E-01 4.8381500E-01 4.8381500E-01 4.8381500E-01 4.1855801E+02
EXPONENTS  6.2745349E+01 1.4279584E+01 4.0418170E+00 1.3163895E+00 4.7346190E-01
EXPONENTS  1.8279990E-01 7.2884400E-02 2.4294800E-02 2.8606730E+00 2.8606730E+00
EXPONENTS  2.8606730E+00 8.8819000E-01 8.8819000E-01 8.8819000E-01 3.0377600E-01
EXPONENTS  3.0377600E-01 3.0377600E-01 1.0125870E-01 1.0125870E-01 1.0125870E-01
EXPONENTS  1.7706130E+00 1.7706130E+00 1.7706130E+00 1.7706130E+00 1.7706130E+00
EXPONENTS  1.7706130E+00 5.9308100E-01 5.9308100E-01 5.9308100E-01 5.9308100E-01
EXPONENTS  5.9308100E-01 5.9308100E-01 1.9769370E-01 1.9769370E-01 1.9769370E-01
EXPONENTS  1.9769370E-01 1.9769370E-01 1.9769370E-01 1.4514450E+00 1.4514450E+00
EXPONENTS  1.4514450E+00 1.4514450E+00 1.4514450E+00 1.4514450E+00 1.4514450E+00
EXPONENTS  1.4514450E+00 1.4514450E+00 1.4514450E+00 4.8381500E-01 4.8381500E-01
EXPONENTS  4.8381500E-01 4.8381500E-01 4.8381500E-01 4.8381500E-01 4.8381500E-01
EXPONENTS  4.8381500E-01 4.8381500E-01 4.8381500E-01
MO  1                     OCC NO =   2.00000000 ORB. ENERGY = -20.56405975
  5.75106698E-01  1.07018482E+00  1.79552341E+00  2.64003692E+00  3.06978171E+00
  2.20314547E+00 -2.49890047E-02  2.43870814E-02  5.72438789E-01 -2.66084830E-02
 -8.17227049E-03  1.59985536E-03  5.14468689E-04  0.00000000E+00  0.00000000E+00
  0.00000000E+00  0.00000000E+00  0.00000000E+00  0.00000000E+00  0.00000000E+00
  0.00000000E+00 -6.52024998E-03 -7.98458271E-03 -8.02977659E-03 -6.25450834E-03
  0.00000000E+00  0.00000000E+00 -2.29401670E-02  0.00000000E+00  0.00000000E+00
  1.01279119E-03  0.00000000E+00  0.00000000E+00  1.12345003E-03  0.00000000E+00
  0.00000000E+00 -6.11915355E-04  0.00000000E+00  0.00000000E+00 -2.86651983E-05
  1.44693716E-04  1.81563253E-04  0.00000000E+00  0.00000000E+00  0.00000000E+00
  0.00000000E+00 -8.06350380E-04 -1.01181726E-03  0.00000000E+00  0.00000000E+00
  6.61656665E-04  8.30254003E-04 -3.60190801E-04  0.00000000E+00  0.00000000E+00
  9.74163234E-04  0.00000000E+00 -6.13972433E-04 -3.59933952E-04  0.00000000E+00
  0.00000000E+00  1.84031919E-04  0.00000000E+00  1.75902032E-04  2.80635338E-05
  0.00000000E+00  0.00000000E+00 -6.63349370E-05  0.00000000E+00  3.82714032E-05
  0.00000000E+00  0.00000000E+00  0.00000000E+00  0.00000000E+00 -8.49679592E-04
 -5.71483108E-04  0.00000000E+00  0.00000000E+00  0.00000000E+00  0.00000000E+00
  0.00000000E+00  0.00000000E+00  0.00000000E+00  0.00000000E+00  3.00826224E-04
  2.02331687E-04  0.00000000E+00  0.00000000E+00  1.82951123E-04  1.23050474E-04
  0.00000000E+00  0.00000000E+00  2.98404883E-04  0.00000000E+00  0.00000000E+00
  0.00000000E+00  0.00000000E+00 -2.65718573E-04  0.00000000E+00 -1.08954366E-05
  0.00000000E+00  0.00000000E+00 -1.98232323E-04  0.00000000E+00  0.00000000E+00
  0.00000000E+00  0.00000000E+00  8.59761180E-05  0.00000000E+00  3.74187351E-05
  4.91793860E-06  4.76364438E-07  0.00000000E+00  0.00000000E+00  0.00000000E+00
  0.00000000E+00  7.58633303E-05  7.34832124E-06  0.00000000E+00  0.00000000E+00
 -1.05370962E-04 -1.02065079E-05  0.00000000E+00  0.00000000E+00  0.00000000E+00
  0.00000000E+00  0.00000000E+00  0.00000000E+00  0.00000000E+00  0.00000000E+00
 -9.62800331E-05 -9.32593665E-06  0.00000000E+00  0.00000000E+00  5.01816868E-04
  4.86072987E-05  0.00000000E+00  0.00000000E+00 -6.60743177E-05 -6.40013180E-06
 -2.51793021E-05  0.00000000E+00  0.00000000E+00 -2.13103972E-06  0.00000000E+00
  1.53206852E-04  0.00000000E+00  0.00000000E+00  0.00000000E+00  0.00000000E+00
  4.46090439E-06  0.00000000E+00 -2.46343866E-05  0.00000000E+00 -2.14287443E-05
  3.00781364E-06  5.61685592E-06  9.61419272E-06  1.51181312E-05  2.10168062E-05
  6.01072671E-04 -2.20279840E-04 -2.75438446E-04 -3.22580741E-06  7.31456366E-04
  0.00000000E+00 -5.20542681E-04 -8.05052578E-04  0.00000000E+00  5.87705104E-04
 -4.58117205E-04  0.00000000E+00  7.29919120E-04  2.76908370E-05  0.00000000E+00
  1.60967517E-05  3.05550714E-04  0.00000000E+00 -6.09642785E-04 -5.39956220E-05
  0.00000000E+00 -2.51555092E-04  1.48746318E-05  0.00000000E+00  7.55495740E-05
 -1.52487714E-04  0.00000000E+00  1.37613082E-04  6.83574286E-06  0.00000000E+00
 -5.51468293E-05 -3.65205248E-05  0.00000000E+00  2.96847820E-05 -1.54016322E-04
  0.00000000E+00  1.31500676E-03  8.61116295E-04  0.00000000E+00 -3.99067329E-04
  0.00000000E+00 -4.59642235E-04  0.00000000E+00 -2.85121507E-04 -9.88514236E-06
  0.00000000E+00 -2.42758142E-04 -1.32210652E-04  0.00000000E+00  1.61866079E-04
  0.00000000E+00  6.35404861E-05  0.00000000E+00  5.97392185E-05  3.00781364E-06
  5.61685592E-06  9.61419272E-06  1.51181312E-05  2.10168062E-05  6.01072671E-04
 -2.20279840E-04 -2.75438446E-04 -3.22580741E-06 -7.31456366E-04  0.00000000E+00
 -5.20542681E-04  8.05052578E-04  0.00000000E+00  5.87705104E-04  4.58117205E-04
  0.00000000E+00  7.29919120E-04 -2.76908370E-05  0.00000000E+00  1.60967517E-05
  3.05550714E-04  0.00000000E+00  6.09642785E-04 -5.39956220E-05  0.00000000E+00
 -2.51555092E-04  1.48746318E-05  0.00000000E+00 -7.55495740E-05 -1.52487714E-04
  0.00000000E+00  1.37613082E-04  6.83574286E-06  0.00000000E+00  5.51468293E-05
 -3.65205248E-05  0.00000000E+00  2.96847820E-05  1.54016322E-04  0.00000000E+00
  1.31500676E-03 -8.61116295E-04  0.00000000E+00  3.99067329E-04  0.00000000E+00
 -4.59642235E-04  0.00000000E+00 -2.85121507E-04  9.88514236E-06  0.00000000E+00
 -2.42758142E-04  1.32210652E-04  0.00000000E+00 -1.61866079E-04  0.00000000E+00
  6.35404861E-05  0.00000000E+00  5.97392185E-05
MO  2                     OCC NO =   2.00000000 ORB. ENERGY =  -1.35186602
 -1.28684686E-01 -2.39462343E-01 -4.01762609E-01 -5.90729206E-01 -6.86888012E-01
 -5.49690219E-01 -2.16167506E-01  2.10960565E-01 -1.92858894E-01  7.45803287E-02
  1.93430877E-01  5.42642430E-02  2.97416511E-03  0.00000000E+00  0.00000000E+00
  0.00000000E+00  0.00000000E+00  0.00000000E+00  0.00000000E+00  0.00000000E+00
  0.00000000E+00 -1.39213305E-01 -1.70478150E-01 -1.71443080E-01 -1.33539478E-01
  0.00000000E+00  0.00000000E+00 -9.58113432E-03  0.00000000E+00  0.00000000E+00
 -6.83871249E-02  0.00000000E+00  0.00000000E+00 -4.52985947E-02  0.00000000E+00
  0.00000000E+00 -2.59289410E-03  0.00000000E+00  0.00000000E+00 -3.67314319E-05
  5.49748966E-03  6.89831002E-03  0.00000000E+00  0.00000000E+00  0.00000000E+00
  0.00000000E+00 -7.76029642E-03 -9.73770464E-03  0.00000000E+00  0.00000000E+00
  2.26280677E-03  2.83939462E-03  1.24588637E-02  0.00000000E+00  0.00000000E+00
 -1.75872975E-02  0.00000000E+00  5.12843378E-03  7.92975700E-03  0.00000000E+00
  0.00000000E+00 -9.14899597E-03  0.00000000E+00  1.21923897E-03  1.49778268E-04
  0.00000000E+00  0.00000000E+00 -8.26481420E-05  0.00000000E+00 -6.71301258E-05
  0.00000000E+00  0.00000000E+00  0.00000000E+00  0.00000000E+00 -2.96931822E-02
 -1.99712364E-02  0.00000000E+00  0.00000000E+00  0.00000000E+00  0.00000000E+00
  0.00000000E+00  0.00000000E+00  0.00000000E+00  0.00000000E+00  1.48003458E-02
  9.95451427E-03  0.00000000E+00  0.00000000E+00  4.96427878E-03  3.33890739E-03
  0.00000000E+00  0.00000000E+00 -1.72805550E-02  0.00000000E+00  0.00000000E+00
  0.00000000E+00  0.00000000E+00  9.82953307E-03  0.00000000E+00  2.48367399E-03
  0.00000000E+00  0.00000000E+00  1.53840734E-04  0.00000000E+00  0.00000000E+00
  0.00000000E+00  0.00000000E+00  1.44636718E-04  0.00000000E+00 -9.94924837E-05
 -2.90117008E-03 -2.81014947E-04  0.00000000E+00  0.00000000E+00  0.00000000E+00
  0.00000000E+00 -2.25391773E-02 -2.18320386E-03  0.00000000E+00  0.00000000E+00
  3.99461978E-02  3.86929354E-03  0.00000000E+00  0.00000000E+00  0.00000000E+00
  0.00000000E+00  0.00000000E+00  0.00000000E+00  0.00000000E+00  0.00000000E+00
  5.86285898E-03  5.67891906E-04  0.00000000E+00  0.00000000E+00 -1.26379766E-02
 -1.22414757E-03  0.00000000E+00  0.00000000E+00 -4.55137020E-03 -4.40857661E-04
  1.31412924E-04  0.00000000E+00  0.00000000E+00 -1.93139386E-04  0.00000000E+00
 -5.95338157E-04  0.00000000E+00  0.00000000E+00  0.00000000E+00  0.00000000E+00
  3.04487825E-05  0.00000000E+00  1.04466908E-05  0.00000000E+00  9.74819111E-05
  6.69252677E-03  1.24977685E-02  2.13920308E-02  3.36385527E-02  4.67633819E-02
  9.73886335E-03 -5.94592099E-03 -1.36345479E-03 -4.56094328E-05 -2.19293779E-02
  0.00000000E+00  1.47084666E-02 -4.06125696E-03  0.00000000E+00  1.73620954E-03
  5.74255042E-03  0.00000000E+00 -6.35011715E-03  5.01417133E-04  0.00000000E+00
 -5.36581656E-04  4.43269441E-03  0.00000000E+00 -9.97983855E-03 -4.76187043E-03
  0.00000000E+00  3.29176026E-04  1.16336688E-04  0.00000000E+00 -1.77848760E-03
  6.75459234E-04  0.00000000E+00 -7.91795922E-04 -1.25763582E-04  0.00000000E+00
  4.79648469E-04  3.32958359E-04  0.00000000E+00 -2.07194777E-04 -2.86960103E-04
  0.00000000E+00  7.25332579E-03  3.72749887E-03  0.00000000E+00 -2.86661856E-03
  0.00000000E+00 -3.84272989E-03  0.00000000E+00 -1.13686530E-03  8.39566948E-05
  0.00000000E+00  1.53655631E-03  7.72759339E-04  0.00000000E+00 -1.02462942E-03
  0.00000000E+00 -2.98064878E-04  0.00000000E+00 -4.12830478E-04  6.69252677E-03
  1.24977685E-02  2.13920308E-02  3.36385527E-02  4.67633819E-02  9.73886335E-03
 -5.94592099E-03 -1.36345479E-03 -4.56094328E-05  2.19293779E-02  0.00000000E+00
  1.47084666E-02  4.06125696E-03  0.00000000E+00  1.73620954E-03 -5.74255042E-03
  0.00000000E+00 -6.35011715E-03 -5.01417133E-04  0.00000000E+00 -5.36581656E-04
  4.43269441E-03  0.00000000E+00  9.97983855E-03 -4.76187043E-03  0.00000000E+00
  3.29176026E-04  1.16336688E-04  0.00000000E+00  1.77848760E-03  6.75459234E-04
  0.00000000E+00 -7.91795922E-04 -1.25763582E-04  0.00000000E+00 -4.79648469E-04
  3.32958359E-04  0.00000000E+00 -2.07194777E-04  2.86960103E-04  0.00000000E+00
  7.25332579E-03 -3.72749887E-03  0.00000000E+00  2.86661856E-03  0.00000000E+00
 -3.84272989E-03  0.00000000E+00 -1.13686530E-03 -8.39566948E-05  0.00000000E+00
  1.53655631E-03 -7.72759339E-04  0.00000000E+00  1.02462942E-03  0.00000000E+00
 -2.98064878E-04  0.00000000E+00 -4.12830478E-04
MO  3                     OCC NO =   2.00000000 ORB. ENERGY =  -0.71752894
  0.00000000E+00  0.00000000E+00  0.00000000E+00  0.00000000E+00  0.00000000E+00
  0.00000000E+00  0.00000000E+00  0.00000000E+00  0.00000000E+00  0.00000000E+00
  0.00000000E+00  0.00000000E+00  0.00000000E+00  8.95552967E-01  1.09667831E+00
  1.10288567E+00  8.59053490E-01  0.00000000E+00  0.00000000E+00  0.00000000E+00
  0.00000000E+00  0.00000000E+00  0.00000000E+00  0.00000000E+00  0.00000000E+00
  3.34599853E-02  0.00000000E+00  0.00000000E+00  4.41837525E-01  0.00000000E+00
  0.00000000E+00  1.24237052E-01  0.00000000E+00  0.00000000E+00  1.13931767E-02
  0.00000000E+00  0.00000000E+00  2.03377151E-04  0.00000000E+00  0.00000000E+00
  0.00000000E+00  0.00000000E+00  0.00000000E+00  0.00000000E+00 -9.97187639E-02
 -1.25128193E-01  0.00000000E+00  0.00000000E+00  0.00000000E+00  0.00000000E+00
  0.00000000E+00  0.00000000E+00  0.00000000E+00  0.00000000E+00 -6.91967257E-02
  0.00000000E+00  0.00000000E+00  0.00000000E+00  0.00000000E+00  0.00000000E+00
 -1.20843328E-02  0.00000000E+00  0.00000000E+00  0.00000000E+00  0.00000000E+00
  0.00000000E+00 -4.44049949E-04  0.00000000E+00  0.00000000E+00  0.00000000E+00
  1.00514548E-02  6.76047378E-03  0.00000000E+00  0.00000000E+00  0.00000000E+00
  0.00000000E+00 -4.81449683E-02 -3.23816605E-02  0.00000000E+00  0.00000000E+00
  1.79906041E-02  1.21002392E-02  0.00000000E+00  0.00000000E+00  0.00000000E+00
  0.00000000E+00  0.00000000E+00  0.00000000E+00  0.00000000E+00  0.00000000E+00
  1.61433607E-03  0.00000000E+00  0.00000000E+00 -5.06076821E-03  0.00000000E+00
  2.17759988E-04  0.00000000E+00  0.00000000E+00  0.00000000E+00  0.00000000E+00
 -2.01118429E-04  0.00000000E+00  0.00000000E+00  2.04860644E-04  0.00000000E+00
  3.98494644E-04  0.00000000E+00  0.00000000E+00  0.00000000E+00  0.00000000E+00
  0.00000000E+00  0.00000000E+00  0.00000000E+00  0.00000000E+00 -1.99159185E-02
 -1.92910813E-03  0.00000000E+00  0.00000000E+00  0.00000000E+00  0.00000000E+00
  0.00000000E+00  0.00000000E+00  0.00000000E+00  0.00000000E+00  2.73038781E-02
  2.64472528E-03  0.00000000E+00  0.00000000E+00  1.08146258E-02  1.04753303E-03
  0.00000000E+00  0.00000000E+00  0.00000000E+00  0.00000000E+00  0.00000000E+00
  0.00000000E+00  0.00000000E+00  0.00000000E+00  0.00000000E+00  0.00000000E+00
  0.00000000E+00  0.00000000E+00  2.67663151E-04  0.00000000E+00  0.00000000E+00
  0.00000000E+00  0.00000000E+00 -2.39170561E-04  0.00000000E+00 -1.87939631E-04
  0.00000000E+00  0.00000000E+00  0.00000000E+00  0.00000000E+00  0.00000000E+00
  1.06221047E-02  1.98359468E-02  3.39525560E-02  5.33897345E-02  7.42209265E-02
  6.27491904E-02  1.87352319E-02 -5.01377319E-04  3.96048590E-06 -1.41301523E-02
  0.00000000E+00  1.94763897E-02 -1.44749087E-02  0.00000000E+00  1.86940010E-02
  1.08459632E-03  0.00000000E+00  3.90903061E-03  4.88627349E-04  0.00000000E+00
 -2.38521086E-04  1.52082879E-03  0.00000000E+00 -1.89480316E-02 -5.76202941E-03
  0.00000000E+00  4.24120063E-03 -9.35314379E-06  0.00000000E+00 -3.68255487E-03
 -1.06017491E-03  0.00000000E+00  1.06952805E-03 -2.27301345E-04  0.00000000E+00
  3.62167330E-04  8.63402877E-05  0.00000000E+00  1.40961058E-04  9.11104450E-04
  0.00000000E+00  3.27218074E-03  1.87021187E-03  0.00000000E+00 -4.60352522E-03
  0.00000000E+00 -2.64885908E-03  0.00000000E+00 -2.07773888E-04 -2.02886760E-05
  0.00000000E+00  4.46579999E-04  2.11304492E-04  0.00000000E+00 -1.50438464E-04
  0.00000000E+00 -1.22596236E-04  0.00000000E+00 -1.07994588E-04 -1.06221047E-02
 -1.98359468E-02 -3.39525560E-02 -5.33897345E-02 -7.42209265E-02 -6.27491904E-02
 -1.87352319E-02  5.01377319E-04 -3.96048590E-06 -1.41301523E-02  0.00000000E+00
 -1.94763897E-02 -1.44749087E-02  0.00000000E+00 -1.86940010E-02  1.08459632E-03
  0.00000000E+00 -3.90903061E-03  4.88627349E-04  0.00000000E+00  2.38521086E-04
 -1.52082879E-03  0.00000000E+00 -1.89480316E-02  5.76202941E-03  0.00000000E+00
 -4.24120063E-03  9.35314379E-06  0.00000000E+00 -3.68255487E-03  1.06017491E-03
  0.00000000E+00 -1.06952805E-03  2.27301345E-04  0.00000000E+00  3.62167330E-04
 -8.63402877E-05  0.00000000E+00 -1.40961058E-04  9.11104450E-04  0.00000000E+00
 -3.27218074E-03  1.87021187E-03  0.00000000E+00 -4.60352522E-03  0.00000000E+00
  2.64885908E-03  0.00000000E+00  2.07773888E-04 -2.02886760E-05  0.00000000E+00
 -4.46579999E-04  2.11304492E-04  0.00000000E+00 -1.50438464E-04  0.00000000E+00
  1.22596236E-04  0.00000000E+00  1.07994588E-04
MO  4                     OCC NO =   2.00000000 ORB. ENERGY =  -0.58498228
 -4.21787265E-02 -7.84881010E-02 -1.31684940E-01 -1.93622149E-01 -2.25139932E-01
 -1.83689228E-01 -7.32037464E-02  7.14404491E-02 -6.46803027E-02  3.08053820E-02
  9.17044635E-02  3.82552795E-02 -5.02522719E-04  0.00000000E+00  0.00000000E+00
  0.00000000E+00  0.00000000E+00  0.00000000E+00  0.00000000E+00  0.00000000E+00
  0.00000000E+00  9.89822423E-01  1.21211902E+00  1.21897979E+00  9.49480866E-01
  0.00000000E+00  0.00000000E+00  2.54184497E-02  0.00000000E+00  0.00000000E+00
  4.85238120E-01  0.00000000E+00  0.00000000E+00  1.33075747E-01  0.00000000E+00
  0.00000000E+00  1.94242897E-02  0.00000000E+00  0.00000000E+00  4.37906273E-04
 -3.89643771E-03 -4.88929256E-03  0.00000000E+00  0.00000000E+00  0.00000000E+00
  0.00000000E+00  2.82544642E-02  3.54540100E-02  0.00000000E+00  0.00000000E+00
 -2.43580265E-02 -3.05647174E-02  3.59276728E-03  0.00000000E+00  0.00000000E+00
  1.49560158E-02  0.00000000E+00 -1.85487831E-02  3.96331730E-03  0.00000000E+00
  0.00000000E+00  1.83403746E-04  0.00000000E+00 -4.14672104E-03  6.30222960E-05
  0.00000000E+00  0.00000000E+00  3.35861573E-04  0.00000000E+00 -3.98883869E-04
  0.00000000E+00  0.00000000E+00  0.00000000E+00  0.00000000E+00  3.62319810E-02
  2.43691449E-02  0.00000000E+00  0.00000000E+00  0.00000000E+00  0.00000000E+00
  0.00000000E+00  0.00000000E+00  0.00000000E+00  0.00000000E+00 -3.38789449E-02
 -2.27865244E-02  0.00000000E+00  0.00000000E+00 -7.84345380E-04 -5.27540192E-04
  0.00000000E+00  0.00000000E+00 -3.90449354E-03  0.00000000E+00  0.00000000E+00
  0.00000000E+00  0.00000000E+00 -7.19863713E-04  0.00000000E+00  1.54145242E-03
  0.00000000E+00  0.00000000E+00 -6.61595449E-05  0.00000000E+00  0.00000000E+00
  0.00000000E+00  0.00000000E+00 -1.30163567E-04  0.00000000E+00  6.54410372E-05
  1.96404427E-03  1.90242482E-04  0.00000000E+00  0.00000000E+00  0.00000000E+00
  0.00000000E+00 -4.12107507E-03 -3.99178146E-04  0.00000000E+00  0.00000000E+00
 -7.66319052E-03 -7.42276743E-04  0.00000000E+00  0.00000000E+00  0.00000000E+00
  0.00000000E+00  0.00000000E+00  0.00000000E+00  0.00000000E+00  0.00000000E+00
 -5.13667524E-04 -4.97551843E-05  0.00000000E+00  0.00000000E+00  7.20308022E-03
  6.97709252E-04  0.00000000E+00  0.00000000E+00  7.66850504E-05  7.42791521E-06
  3.08314683E-05  0.00000000E+00  0.00000000E+00 -1.87941273E-04  0.00000000E+00
  2.95246327E-06  0.00000000E+00  0.00000000E+00  0.00000000E+00  0.00000000E+00
  2.39632301E-05  0.00000000E+00  4.41618926E-05  0.00000000E+00 -7.85239264E-06
 -6.37531823E-03 -1.19054065E-02 -2.03781036E-02 -3.20441719E-02 -4.45469180E-02
 -4.98569052E-02 -1.68211939E-02  7.56864029E-04 -3.25380329E-05  1.48543780E-02
  0.00000000E+00  3.18281939E-03  2.15966692E-02  0.00000000E+00 -2.00046106E-03
  7.06773834E-03  0.00000000E+00  7.62525356E-04 -1.33165706E-04  0.00000000E+00
  5.78241710E-04 -9.69798128E-03  0.00000000E+00  7.45827642E-03  4.00824557E-03
  0.00000000E+00  5.68973571E-03 -3.03040679E-03  0.00000000E+00  8.87053978E-04
  1.45846126E-03  0.00000000E+00  1.57194553E-03 -2.79260215E-04  0.00000000E+00
 -7.31670274E-05  1.19073912E-04  0.00000000E+00  1.60186302E-04  1.86931901E-03
  0.00000000E+00 -2.42957368E-03 -2.25724936E-03  0.00000000E+00 -3.35070766E-03
  0.00000000E+00 -5.27691538E-04  0.00000000E+00  9.85755073E-04  2.60380354E-04
  0.00000000E+00  2.44655320E-04 -7.09904858E-05  0.00000000E+00 -7.10150577E-04
  0.00000000E+00 -5.85126882E-05  0.00000000E+00 -6.20475438E-05 -6.37531823E-03
 -1.19054065E-02 -2.03781036E-02 -3.20441719E-02 -4.45469180E-02 -4.98569052E-02
 -1.68211939E-02  7.56864029E-04 -3.25380329E-05 -1.48543780E-02  0.00000000E+00
  3.18281939E-03 -2.15966692E-02  0.00000000E+00 -2.00046106E-03 -7.06773834E-03
  0.00000000E+00  7.62525356E-04  1.33165706E-04  0.00000000E+00  5.78241710E-04
 -9.69798128E-03  0.00000000E+00 -7.45827642E-03  4.00824557E-03  0.00000000E+00
  5.68973571E-03 -3.03040679E-03  0.00000000E+00 -8.87053978E-04  1.45846126E-03
  0.00000000E+00  1.57194553E-03 -2.79260215E-04  0.00000000E+00  7.31670274E-05
  1.19073912E-04  0.00000000E+00  1.60186302E-04 -1.86931901E-03  0.00000000E+00
 -2.42957368E-03  2.25724936E-03  0.00000000E+00  3.35070766E-03  0.00000000E+00
 -5.27691538E-04  0.00000000E+00  9.85755073E-04 -2.60380354E-04  0.00000000E+00
  2.44655320E-04  7.09904858E-05  0.00000000E+00  7.10150577E-04  0.00000000E+00
 -5.85126882E-05  0.00000000E+00 -6.20475438E-05
MO  5                     OCC NO =   2.00000000 ORB. ENERGY =  -0.51060989
  0.00000000E+00  0.00000000E+00  0.00000000E+00  0.00000000E+00  0.00000000E+00
  0.00000000E+00  0.00000000E+00  0.00000000E+00  0.00000000E+00  0.00000000E+00
  0.00000000E+00  0.00000000E+00  0.00000000E+00  0.00000000E+00  0.00000000E+00
  0.00000000E+00  0.00000000E+00  1.12631617E+00  1.37926685E+00  1.38707370E+00
  1.08041163E+00  0.00000000E+00  0.00000000E+00  0.00000000E+00  0.00000000E+00
  0.00000000E+00  1.88572018E-02  0.00000000E+00  0.00000000E+00  5.49853615E-01
  0.00000000E+00  0.00000000E+00  1.72702825E-01  0.00000000E+00  0.00000000E+00
  2.52783799E-02  0.00000000E+00  0.00000000E+00  5.26278670E-04  0.00000000E+00
  0.00000000E+00  0.00000000E+00  0.00000000E+00  0.00000000E+00  0.00000000E+00
  0.00000000E+00  0.00000000E+00  0.00000000E+00 -3.90578463E-02 -4.90102118E-02
  0.00000000E+00  0.00000000E+00  0.00000000E+00  0.00000000E+00  0.00000000E+00
  0.00000000E+00 -3.22165904E-02  0.00000000E+00  0.00000000E+00  0.00000000E+00
  0.00000000E+00  0.00000000E+00 -6.52480217E-03  0.00000000E+00  0.00000000E+00
  0.00000000E+00  0.00000000E+00  0.00000000E+00 -4.84867062E-04  0.00000000E+00
  0.00000000E+00  0.00000000E+00  3.30233057E-02  2.22110329E-02  0.00000000E+00
  0.00000000E+00  0.00000000E+00  0.00000000E+00  0.00000000E+00  0.00000000E+00
  0.00000000E+00  0.00000000E+00 -1.57373924E-02 -1.05847593E-02  0.00000000E+00
  0.00000000E+00  1.41888716E-02  9.54324487E-03  0.00000000E+00  0.00000000E+00
  0.00000000E+00  4.62803870E-03  0.00000000E+00  0.00000000E+00  0.00000000E+00
  0.00000000E+00 -2.29279405E-03  0.00000000E+00  2.25034345E-03  0.00000000E+00
  0.00000000E+00  2.36291037E-06  0.00000000E+00  0.00000000E+00  0.00000000E+00
  0.00000000E+00 -5.57208082E-05  0.00000000E+00  1.64799514E-04  0.00000000E+00
  0.00000000E+00  0.00000000E+00  0.00000000E+00  0.00000000E+00  0.00000000E+00
  0.00000000E+00  0.00000000E+00  0.00000000E+00 -2.22275381E-02 -2.15301767E-03
  0.00000000E+00  0.00000000E+00  0.00000000E+00  0.00000000E+00  0.00000000E+00
  0.00000000E+00  0.00000000E+00  0.00000000E+00  0.00000000E+00  0.00000000E+00
  0.00000000E+00  0.00000000E+00  8.22787964E-03  7.96974013E-04  0.00000000E+00
  0.00000000E+00 -8.18700265E-04 -7.93014561E-05  0.00000000E+00  0.00000000E+00
  0.00000000E+00  0.00000000E+00  0.00000000E+00  0.00000000E+00  9.30132893E-05
  0.00000000E+00  0.00000000E+00  0.00000000E+00  0.00000000E+00  0.00000000E+00
  0.00000000E+00  1.91819056E-05  0.00000000E+00 -5.01863354E-05  0.00000000E+00
  0.00000000E+00  0.00000000E+00  0.00000000E+00  0.00000000E+00  0.00000000E+00
  0.00000000E+00  0.00000000E+00  0.00000000E+00  0.00000000E+00  0.00000000E+00
  1.67018487E-02  0.00000000E+00  0.00000000E+00  1.71558830E-02  0.00000000E+00
  0.00000000E+00  9.17940194E-03  0.00000000E+00  0.00000000E+00  9.28771614E-04
  0.00000000E+00  0.00000000E+00 -1.53924736E-02  0.00000000E+00  0.00000000E+00
  1.11712811E-02  0.00000000E+00  0.00000000E+00 -5.24327845E-03  0.00000000E+00
  0.00000000E+00  4.07446044E-03  0.00000000E+00  0.00000000E+00 -6.54205255E-04
  0.00000000E+00  0.00000000E+00  5.65800563E-04  0.00000000E+00  0.00000000E+00
  4.89231558E-03  0.00000000E+00  0.00000000E+00 -9.78272754E-03  0.00000000E+00
 -2.16794720E-03  0.00000000E+00  1.61152603E-03  0.00000000E+00  0.00000000E+00
  3.23222956E-04  0.00000000E+00  0.00000000E+00 -8.30403236E-04  0.00000000E+00
 -1.75488984E-04  0.00000000E+00  2.03243996E-04  0.00000000E+00  0.00000000E+00
  0.00000000E+00  0.00000000E+00  0.00000000E+00  0.00000000E+00  0.00000000E+00
  0.00000000E+00  0.00000000E+00  0.00000000E+00  0.00000000E+00  1.67018487E-02
  0.00000000E+00  0.00000000E+00  1.71558830E-02  0.00000000E+00  0.00000000E+00
  9.17940194E-03  0.00000000E+00  0.00000000E+00  9.28771614E-04  0.00000000E+00
  0.00000000E+00  1.53924736E-02  0.00000000E+00  0.00000000E+00  1.11712811E-02
  0.00000000E+00  0.00000000E+00  5.24327845E-03  0.00000000E+00  0.00000000E+00
  4.07446044E-03  0.00000000E+00  0.00000000E+00  6.54205255E-04  0.00000000E+00
  0.00000000E+00  5.65800563E-04  0.00000000E+00  0.00000000E+00  4.89231558E-03
  0.00000000E+00  0.00000000E+00  9.78272754E-03  0.00000000E+00 -2.16794720E-03
  0.00000000E+00  1.61152603E-03  0.00000000E+00  0.00000000E+00  3.23222956E-04
  0.00000000E+00  0.00000000E+00  8.30403236E-04  0.00000000E+00 -1.75488984E-04
  0.00000000E+00  2.03243996E-04  0.00000000E+00
END DATA
RHF      ENERGY =        0.0000000000   VIRIAL(-V/T)  =   0.00000000
