#INFO: **** input file is /home/jluis/src/git/pmd/examples/lif.py ****
#!/usr/bin/env python

from pyscf import gto, scf, lib
from pyscf.tools import wfn_format

name = 'lif'

mol = gto.Mole()
mol.atom = '''
  F     0.0000  0.0000  0.0000
  Li    0.0000  0.0000  1.5639
'''
mol.basis = 'aug-cc-pvdz'
mol.verbose = 4
mol.spin = 0
mol.symmetry = 1
mol.charge = 0
mol.build()

mf = scf.RHF(mol)
mf.max_cycle = 150
mf.chkfile = name+'.chk'
mf.kernel()

wfn_file = name + '.wfn'
with open(wfn_file, 'w') as f2:
    wfn_format.write_mo(f2, mol, mf.mo_coeff[:,mf.mo_occ>0], \
    mo_occ=mf.mo_occ[mf.mo_occ>0])

#INFO: ******************** input file end ********************


System: ('Linux', 'silicio', '3.16.0-4-amd64', '#1 SMP Debian 3.16.51-3 (2017-12-13)', 'x86_64', '')  Threads 12
Python 2.7.15 (default, Oct 25 2018, 01:35:55) 
[GCC 8.2.0]
numpy 1.15.3  scipy 1.1.0
Date: Sun Nov 11 23:03:14 2018
PySCF version 1.6a
PySCF path  /home/jluis/src/pyscf/dev/pyscf
GIT ORIG_HEAD 1dd3a4ea22fd6c1458c2790b89efe441c296ef79
GIT HEAD      ref: refs/heads/dev
GIT dev branch  1dd3a4ea22fd6c1458c2790b89efe441c296ef79

[ENV] PYSCF_TMPDIR /scratch-ssd/jluis
[CONFIG] conf_file None
[INPUT] verbose = 4
[INPUT] num. atoms = 2
[INPUT] num. electrons = 12
[INPUT] charge = 0
[INPUT] spin (= nelec alpha-beta = 2S) = 0
[INPUT] symmetry 1 subgroup None
[INPUT] Mole.unit = angstrom
[INPUT]  1 F      0.000000000000   0.000000000000  -0.390975000000 AA    0.000000000000   0.000000000000  -0.738835671552 Bohr
[INPUT]  2 Li     0.000000000000   0.000000000000   1.172925000000 AA    0.000000000000   0.000000000000   2.216507014655 Bohr

nuclear repulsion = 9.13599635196624
point group symmetry = Coov
num. orbitals of irrep A1 = 18
num. orbitals of irrep E1x = 10
num. orbitals of irrep E1y = 10
num. orbitals of irrep E2x = 4
num. orbitals of irrep E2y = 4
number of shells = 16
number of NR pGTOs = 70
number of NR cGTOs = 46
basis = aug-cc-pvdz
ecp = {}
CPU time:         0.25


******** <class 'pyscf.scf.hf_symm.SymAdaptedRHF'> ********
method = SymAdaptedRHF-RHF
initial guess = minao
damping factor = 0
level shift factor = 0
DIIS = <class 'pyscf.scf.diis.CDIIS'>
DIIS start cycle = 1
DIIS space = 8
SCF tol = 1e-09
SCF gradient tol = None
max. SCF cycles = 150
direct_scf = True
direct_scf_tol = 1e-13
chkfile to save SCF result = lif.chk
max_memory 60000 MB (current use 64 MB)
Freeze 0 electrons in irreps []
    12 free electrons in irreps A1 E1x E1y E2x E2y
Set gradient conv threshold to 3.16228e-05
init E= -106.551050682527
HOMO (E1x) = -0.68328829429897  LUMO (A1) = -0.0601297658831021
cycle= 1 E= -106.886063545333  delta_E= -0.335  |g|= 0.626  |ddm|= 1.03
HOMO (E1x) = -0.316722449612966  LUMO (A1) = -0.0130299382342129
cycle= 2 E= -106.921722165033  delta_E= -0.0357  |g|= 0.485  |ddm|= 0.791
HOMO (E1x) = -0.468053705061752  LUMO (A1) = -0.0114947863716786
cycle= 3 E= -106.9570264932  delta_E= -0.0353  |g|= 0.0132  |ddm|= 0.263
HOMO (E1x) = -0.474780913656847  LUMO (A1) = -0.0107321372509021
cycle= 4 E= -106.957095616829  delta_E= -6.91e-05  |g|= 0.0022  |ddm|= 0.028
HOMO (E1x) = -0.474350998822668  LUMO (A1) = -0.0106329036373478
cycle= 5 E= -106.957099438713  delta_E= -3.82e-06  |g|= 0.000561  |ddm|= 0.00474
HOMO (E1x) = -0.474296067136613  LUMO (A1) = -0.0106261197714069
cycle= 6 E= -106.957099673259  delta_E= -2.35e-07  |g|= 0.000126  |ddm|= 0.00134
HOMO (E1x) = -0.474278499554021  LUMO (A1) = -0.0106300835496639
cycle= 7 E= -106.957099682692  delta_E= -9.43e-09  |g|= 2.86e-05  |ddm|= 0.000288
HOMO (E1x) = -0.474268655386051  LUMO (A1) = -0.0106307209983091
cycle= 8 E= -106.957099683073  delta_E= -3.81e-10  |g|= 3.23e-06  |ddm|= 6.32e-05
HOMO (E1x) = -0.474270236054436  LUMO (A1) = -0.0106307655920499
Extra cycle  E= -106.957099683078  delta_E= -4.85e-12  |g|= 1.17e-06  |ddm|= 5.08e-06
converged SCF energy = -106.957099683078
